/*--------------------------------*- C++ -*----------------------------------*\
| =========                 |                                                 |
| \\      /  F ield         | OpenFOAM: The Open Source CFD Toolbox           |
|  \\    /   O peration     | Version:  v1812                                 |
|   \\  /    A nd           | Web:      www.OpenFOAM.com                      |
|    \\/     M anipulation  |                                                 |
\*---------------------------------------------------------------------------*/
FoamFile
{
    version     2.0;
    format      ascii;
    class       volScalarField;
    location    "0";
    object      epsilon;
}
// * * * * * * * * * * * * * * * * * * * * * * * * * * * * * * * * * * * * * //

dimensions      [0 2 -3 0 0 0 0];

internalField uniform 2.16;

boundaryField
{
    inlet
    {
        type            fixedValue;
        value           $internalField;
    }
    outlet
    {
        type            zeroGradient;
    }
    walls
    {
        type            epsilonWallFunction;
        value           $internalField;
    }
    wallsbump
    {
        type            epsilonWallFunction;
        value           $internalField;
    }
    frontandback
    {
        type            epsilonWallFunction;
        value           $internalField;
    }
}


// * * * * * * * * * * * * * * * * * * * * * * * * * * * * * * * * * * * * * //
