/*--------------------------------*- C++ -*----------------------------------*\
| =========                 |                                                 |
| \\      /  F ield         | OpenFOAM: The Open Source CFD Toolbox           |
|  \\    /   O peration     | Version:  plus                                  |
|   \\  /    A nd           | Web:      www.OpenFOAM.com                      |
|    \\/     M anipulation  |                                                 |
\*---------------------------------------------------------------------------*/
FoamFile
{
    version     2.0;
    format      ascii;
    class       volVectorField;
    location    "0";
    object      U;
}
// * * * * * * * * * * * * * * * * * * * * * * * * * * * * * * * * * * * * * //

dimensions      [0 1 -1 0 0 0 0];


internalField   uniform (2 0 0);

boundaryField
{
    inlet
    {
        type              multiFreqVector;
        refValue          (2 0 0);
        frequencies       (1.0);
        amplitudes        (0.1);
        phases            (0.0);
        component         0;
        value             $internalField;
    }
    outlet
    {
        type            zeroGradient;
    }
    walls
    {
        type            fixedValue;
        value           uniform (0 0 0);
    }
    wallsbump
    {
        type            fixedValue;
        value           uniform (0 0 0);
    }
    frontandback
    {
        type            fixedValue;
        value           uniform (0 0 0);
    }
}


// ************************************************************************* //
