/*--------------------------------*- C++ -*----------------------------------*\
| =========                 |                                                 |
| \\      /  F ield         | OpenFOAM: The Open Source CFD Toolbox           |
|  \\    /   O peration     | Version:  plus                                  |
|   \\  /    A nd           | Web:      www.OpenFOAM.org                      |
|    \\/     M anipulation  |                                                 |
\*---------------------------------------------------------------------------*/
FoamFile
{
    version     2.0;
    format      ascii;
    class       volScalarField;
    location    "0";
    object      p;
}
// * * * * * * * * * * * * * * * * * * * * * * * * * * * * * * * * * * * * * //

#include         "include/freestreamConditions"

dimensions      [1 -1 -2 0 0 0 0];

internalField   uniform 101325;

boundaryField
{
    walls
    {
        type            characteristicWallPressure;
        value           $internalField;
    }
    inlet
    {
        type            characteristicFarfieldPressure;
        #include        "include/freestreamConditions"
        value           $internalField;
    }
    outlet
    {
        type            characteristicFarfieldPressure;
        #include        "include/freestreamConditions"
        value           $internalField;
    }
}


// ************************************************************************* //
