/*--------------------------------*- C++ -*----------------------------------*\
| =========                 |                                                 |
| \\      /  F ield         | OpenFOAM: The Open Source CFD Toolbox           |
|  \\    /   O peration     | Version:  plus                                  |
|   \\  /    A nd           | Web:      www.OpenFOAM.org                      |
|    \\/     M anipulation  |                                                 |
\*---------------------------------------------------------------------------*/
FoamFile
{
    version     2.0;
    format      ascii;
    class       volScalarField;
    location    "0";
    object      T;
}
// * * * * * * * * * * * * * * * * * * * * * * * * * * * * * * * * * * * * * //
#include         "include/freestreamConditions"

dimensions      [0 0 0 1 0 0 0];

internalField   uniform 300;

boundaryField
{
    walls
    {
        type            characteristicWallTemperature;
        value           $internalField;
    }
    inlet
    {
        type            characteristicFarfieldTemperature;
        #include        "include/freestreamConditions"
        value           $internalField;
    }
    outlet
    {
        type            characteristicFarfieldTemperature;
        #include        "include/freestreamConditions"
        value           $internalField;
    }
}


// ************************************************************************* //
