/*--------------------------------*- C++ -*----------------------------------*\
| =========                 |                                                 |
| \\      /  F ield         | OpenFOAM: The Open Source CFD Toolbox           |
|  \\    /   O peration     | Version:  v1812                                 |
|   \\  /    A nd           | Web:      www.OpenFOAM.com                      |
|    \\/     M anipulation  |                                                 |
\*---------------------------------------------------------------------------*/
FoamFile
{
    version     2.0;
    format      ascii;
    class       volVectorField;
    location    "288";
    object      varRefFieldInversion;
}
// * * * * * * * * * * * * * * * * * * * * * * * * * * * * * * * * * * * * * //

dimensions      [0 1 -1 0 0 0 0];


internalField   nonuniform List<vector> 
4032
(
(3.155503264310159 -0.7551526254708323 3.471361287593835e-10)
(2.939628077638974 -0.4956696817008768 3.311333591594418e-10)
(2.720868058404724 -0.7890436887159991 3.344492376387409e-10)
(3.015326676351074 -0.4649642931112721 3.626407484019344e-10)
(3.1162041747894 -0.4258268681823671 3.469970525317322e-10)
(3.37984215986821 -0.480869290737069 3.738686584280976e-10)
(1.9259192063798 -0.7298806062234371 3.358127181143192e-10)
(2.408876501210099 -0.4085981986639823 3.513366568180633e-10)
(3.421352767526642 -0.2589455232934163 4.085059802270309e-10)
(3.108438932481247 -0.4001070521588938 3.433370982363895e-10)
(3.664745192629705 -0.4533662947436083 3.867681543761983e-10)
(3.918840623769789 -0.3618699537162579 4.221022699570783e-10)
(3.698020483410057 0.1646405886204144 3.640390221273476e-10)
(1.97537551563537 -0.1151809205738686 3.542547070915202e-10)
(2.822176499218909 -0.1613714222939455 3.69324353640577e-10)
(4.014612134405054 -0.1747663877547342 4.500832002441932e-10)
(3.27347648779389 -0.4028112742359666 3.523280157388299e-10)
(3.856387156867713 -0.4440904413683987 3.908715147915131e-10)
(4.311404532663748 -0.3939987559149526 4.294167127763905e-10)
(4.555769677463559 -0.2739682563515241 4.659571229073463e-10)
(5.674607343974473 1.274156083563197 4.28438525780763e-10)
(3.877674602511648 0.5736972469322198 3.859389522550987e-10)
(2.744498596901336 0.1440941078856177 3.575519505159461e-10)
(3.366304337133507 -0.08355178121107232 3.867933470789861e-10)
(4.519900389384682 -0.1324530694681862 4.746802343291612e-10)
(3.307655969544713 -0.4062634161522796 3.508489667084307e-10)
(4.020185940163637 -0.4477755960780978 3.929237884563565e-10)
(4.612704499861565 -0.4202312142449121 4.30234920250538e-10)
(5.017942272876941 -0.3375898899896778 4.66956340743216e-10)
(5.191812947616985 -0.2220103420462098 4.900439989303305e-10)
(6.170568252714935 1.326978339960583 4.528003396155891e-10)
(5.369777336663341 0.9948551451623306 4.491362848384799e-10)
(4.758290433247446 0.647618232484245 4.346257190146405e-10)
(3.416971784998126 0.1991406260489144 3.626123118258252e-10)
(3.725273642568515 -0.04593523951362484 4.143531323469253e-10)
(5.082548385415833 -0.09662307895883362 4.879200825903978e-10)
(3.468084228804051 -0.4226400471350222 3.558473472775638e-10)
(4.1634506508555 -0.4603952101192604 3.96153496423465e-10)
(4.85687024927686 -0.4423149565933595 4.290348376643028e-10)
(5.412141787246423 -0.3899755083254751 4.598322268724935e-10)
(5.81405360704536 -0.3023192440996303 4.825906684032371e-10)
(5.9951388955843 -0.193308891158509 4.86343733545649e-10)
(5.869541920074798 0.9647970568055744 4.366857320955248e-10)
(6.005213816619065 0.9634253335462645 4.916765122494169e-10)
(5.939905685534185 0.7584168917380794 5.028097303484636e-10)
(5.382294364088239 0.5960373644581011 4.692168855094868e-10)
(3.784089978022948 0.2189577109094974 3.834737665804839e-10)
(4.108834375098928 -0.00477919194702742 4.55100753399638e-10)
(5.814139170720235 -0.07539128005330473 4.832111460464612e-10)
(3.552441821916929 -0.4339274472584177 3.565147003449517e-10)
(4.305726431247056 -0.4750592608086627 4.000226744331378e-10)
(5.063998233755797 -0.4664754788437302 4.326079221852108e-10)
(5.747982736793361 -0.4327396421411008 4.526594200028889e-10)
(6.366121862576589 -0.3661173115392041 4.618525388175119e-10)
(6.847130533855967 -0.2765800441039437 4.537312058342438e-10)
(6.968945920540311 -0.1702026684432031 4.388497296043178e-10)
(6.014806046341701 0.8684726009127531 4.424475738756265e-10)
(6.399127717670885 0.9963344491667463 4.982829093587336e-10)
(6.479202155301841 0.792882471577419 5.181317392486121e-10)
(6.478899125412528 0.6746961353417431 5.284750381420785e-10)
(5.706597485691209 0.5616589351187429 4.84130518253756e-10)
(4.126383633230668 0.2300273097440833 4.180907875566113e-10)
(4.558032687067252 0.02497471589794073 5.019586472849788e-10)
(6.638317129222056 -0.06387911981403649 4.541355317683705e-10)
(3.706998949092543 -0.4506268106197479 3.584716136473249e-10)
(4.446610069603963 -0.4952804197240515 4.024523184719384e-10)
(5.250014849132262 -0.491086505203086 4.405208502048458e-10)
(6.034915912784845 -0.4706998188054227 4.562358267482605e-10)
(6.833300511338267 -0.4173316644924934 4.455875562561516e-10)
(7.521551530303498 -0.3370354452940676 4.092492039961342e-10)
(7.852552009856676 -0.2386112164586187 3.691121001515101e-10)
(7.839264334318959 -0.1356747027999896 3.5778730041271e-10)
(5.989040301185916 0.8228634022857465 4.402693194630083e-10)
(6.680605289244554 0.94456053570632 4.975266948864738e-10)
(6.989997388941251 0.9228603630202674 5.374653260112498e-10)
(7.136383063225713 0.7724914160643653 5.393811705207967e-10)
(6.896916233467319 0.6529850494890922 5.443743311444193e-10)
(6.083116802515191 0.5339305375961364 5.025515434837278e-10)
(4.476855426004379 0.2346802158069023 4.638846373583287e-10)
(5.086881891380759 0.0412689387499777 5.377056729688007e-10)
(7.447157252624905 -0.0382556629954131 3.954814321477956e-10)
(3.841456717687836 -0.4666636664332202 3.593443915165937e-10)
(4.596244059554153 -0.5140967953086256 4.024925928914649e-10)
(5.424943302314948 -0.5179986219372646 4.427532549325669e-10)
(6.285091756504748 -0.5062957125469626 4.672457656018966e-10)
(7.213383038883678 -0.4632738223290071 4.483741899845579e-10)
(8.011760426695815 -0.3906588424271167 3.806122008499263e-10)
(8.421207947368847 -0.2891995238978843 3.053070503142052e-10)
(8.57054919077685 -0.1808978109029303 2.629315692420793e-10)
(8.524940489386605 -0.07472176272538655 2.450167317647788e-10)
(6.097706927747841 0.8121631512593057 4.465701986491558e-10)
(6.842579280430674 0.9250417218892869 5.021518326163201e-10)
(7.35804322330431 0.9370932951637975 5.50780425296937e-10)
(7.702134892789751 0.8904254746895117 5.827389534947658e-10)
(7.743356926961908 0.7801859350737866 5.97201846146287e-10)
(7.395304717254411 0.6470632039399806 5.79352824747041e-10)
(6.511599981467792 0.5189101502487573 5.300018685567765e-10)
(4.826716672744649 0.240679775024525 5.09633471482779e-10)
(5.689646648365704 0.05317605633953451 5.55499608529933e-10)
(8.144933567482283 0.007225739387022034 3.145431598584977e-10)
(3.998494051209228 -0.4822271440693196 3.608302478358371e-10)
(4.752653833815434 -0.5367323214517848 4.018777519143375e-10)
(5.596459392216731 -0.5450378399790525 4.366700798573589e-10)
(6.509479619876039 -0.5415736041907699 4.677486413023428e-10)
(7.524712141150929 -0.5070019166545314 4.578186087524011e-10)
(8.369656298595805 -0.4410856908697771 3.839117993061948e-10)
(8.780135060067634 -0.3387892031290979 2.683320172880188e-10)
(8.961027384880069 -0.2236583795600858 2.045181556717956e-10)
(9.039701971522506 -0.10517119309992 1.306424767811901e-10)
(8.992219423443535 -0.002491666880489414 1.287362726015115e-10)
(6.103610963756442 0.8061160668204388 4.452946358494425e-10)
(6.967159577796529 0.9162928922270903 5.072702523871569e-10)
(7.625352916072892 0.9547160213153137 5.663395518943277e-10)
(8.114655109354102 0.9398826135489551 6.33698936007283e-10)
(8.33985072862607 0.8712701752406765 6.90743055145025e-10)
(8.283365774446223 0.7730337147424753 6.847535397164136e-10)
(7.916356724704178 0.6470899375902693 6.431780491941571e-10)
(6.945416119621966 0.5166462084716527 5.693118119638953e-10)
(5.18646530525648 0.2486879829886919 5.518917441351153e-10)
(6.340497323234427 0.0702837234902689 5.450653300003849e-10)
(8.706159512622259 0.071822763439083 2.192989814336448e-10)
(4.166185893794994 -0.497620639312608 3.622895183060065e-10)
(4.919886391193142 -0.5570768253825705 4.031267364751987e-10)
(5.768739270775233 -0.5739330343502976 4.294572899981423e-10)
(6.716636634036672 -0.5769073188026087 4.566300018175721e-10)
(7.785166030228126 -0.5495440623077472 4.552984176118522e-10)
(8.638478316853051 -0.4890993369486697 3.921668001309367e-10)
(9.017899311427039 -0.3862898273555675 2.683650959469598e-10)
(9.183744316026633 -0.2705689286248611 1.754335565650581e-10)
(9.275509693060002 -0.1452904334557161 7.099402768105804e-11)
(9.310277152379109 -0.03305296200196887 -3.417355621251341e-14)
(9.30644099813453 0.07727958681498234 9.268921790422929e-13)
(6.222418013975313 0.8132688695055136 4.499258215634163e-10)
(7.064476520928209 0.9175905381439758 5.109944198911449e-10)
(7.818210844597826 0.9622105671775231 5.787250724972507e-10)
(8.41122734969751 0.9788476620666284 6.771301494597843e-10)
(8.716323601468542 0.9228448355246932 7.980188719240003e-10)
(8.78992165727847 0.8405935367503476 8.260694301395648e-10)
(8.729239334832721 0.7485195245699948 8.101274606471857e-10)
(8.374349361546761 0.6431688832484324 7.388362544533836e-10)
(7.378867405254043 0.5164319788425998 6.291613143617969e-10)
(5.566197437773658 0.2606972336438133 5.828435215381303e-10)
(6.993789001376483 0.09967745293727522 5.014710199149219e-10)
(9.118385766440369 0.1418840139720918 1.237762860640225e-10)
(4.355725984705287 -0.5132296684542484 3.646038365844074e-10)
(5.096283785204178 -0.5766635110343024 4.048077511154369e-10)
(5.943919538296073 -0.6017920110200404 4.273637456065883e-10)
(6.913504923457659 -0.6126204082331042 4.446745691753071e-10)
(8.010645769917566 -0.5913701964861633 4.449671028487817e-10)
(8.848903735637803 -0.5353488161418312 3.898478796589964e-10)
(9.186115750503987 -0.431958234923858 2.697818117853294e-10)
(9.325426677762819 -0.3170381063911566 1.721043308265583e-10)
(9.405296132082196 -0.1895374788731095 1.391643844980732e-11)
(9.445442772849718 -0.07537993324768572 -9.095792071720458e-11)
(9.486820324386636 0.04428799651109328 -1.883807386082971e-10)
(9.495057438056612 0.1460880436012571 -1.343267990750212e-10)
(6.237433259519688 0.8128244067230034 4.490037524629481e-10)
(7.152930501239599 0.9227829738762932 5.149116796481646e-10)
(7.964374783546545 0.9716286606745036 5.893379901134478e-10)
(8.621472510293513 1.003683124384341 7.099223023441321e-10)
(8.954437183551359 0.9601455065506616 8.87703842067004e-10)
(9.056704310483632 0.88698680575125 9.752019514824773e-10)
(9.088584223880449 0.7949256701584453 9.986354856557293e-10)
(9.037137056531009 0.7151323841519089 9.646353001450087e-10)
(8.764463485451039 0.6270005731782379 8.856047459307204e-10)
(7.800931325924012 0.5151783447924428 7.080806651700728e-10)
(5.961348633279491 0.2766885419730908 5.910408792943905e-10)
(7.593355296559534 0.1390604502752422 4.414836739828014e-10)
(9.417528186681801 0.2174055842199321 -9.519064843683356e-12)
(4.569664133241143 -0.5299414336698876 3.682965811169343e-10)
(5.288180436253456 -0.5944658173956908 4.072814910853777e-10)
(6.123892215343345 -0.6281485204437776 4.298048436396679e-10)
(7.104218731029849 -0.6474252867299648 4.390727921127552e-10)
(8.21221921647822 -0.6324866677308144 4.326487887317115e-10)
(9.02154725669433 -0.5802528936560051 3.843419712793896e-10)
(9.314703843571495 -0.4760496877434355 2.606583866155539e-10)
(9.427517478111181 -0.362816174490598 1.643222058013754e-10)
(9.490561163435999 -0.2332826098203878 -5.389352913916217e-11)
(9.524528172560426 -0.1195885042727081 -2.180728349598619e-10)
(9.566675769731726 0.005065143452042897 -3.994096325742987e-10)
(9.591077182999227 0.1068828136649451 -4.108772859972303e-10)
(9.625147048608678 0.2171332880961781 -3.796644969577056e-10)
(6.342884683494441 0.8159446385218595 4.509638842401426e-10)
(7.234675146337494 0.9299225412346978 5.183237096024595e-10)
(8.081716147779643 0.9811419000752364 5.994898445853459e-10)
(8.777096473585317 1.023726962456314 7.371956100573076e-10)
(9.111329958792927 0.9866123042004874 9.527152118665905e-10)
(9.205512259472355 0.9227534822455178 1.090904897157205e-09)
(9.247342408248235 0.8342476830553525 1.188538643794053e-09)
(9.257538817604043 0.7521065583317778 1.182589733169374e-09)
(9.252162520069138 0.6728122525161208 1.172026602787348e-09)
(9.071698251940616 0.6045654077417095 1.063799949329401e-09)
(8.195537158914219 0.5117231217382243 7.953377729148681e-10)
(6.362658945332384 0.2952549813801844 5.822732125267769e-10)
(8.12417748925324 0.1893951905228582 3.677496745498076e-10)
(9.618501480005138 0.285664753216849 -1.990209331235674e-10)
(4.781911098697281 -0.5450934981927271 3.722033550987934e-10)
(5.501996750900533 -0.6123321283565495 4.107863170133431e-10)
(6.317709418203378 -0.6518705349174783 4.339336163222395e-10)
(7.293905814525188 -0.6805206511413663 4.416920745355047e-10)
(8.397695012688407 -0.6722677066023333 4.217902924905832e-10)
(9.169964201166508 -0.6238924253599619 3.689750153840016e-10)
(9.421116035273034 -0.5189017895704061 2.511322818373784e-10)
(9.510304157890639 -0.4076529695290765 1.399204245596565e-10)
(9.55709610156473 -0.2761883709828017 -1.377331177790911e-10)
(9.582481242160858 -0.1630520675866476 -3.785556007287685e-10)
(9.619202735746331 -0.03486558093843872 -6.49203140035469e-10)
(9.642384771592651 0.06884983934372427 -7.473594736440357e-10)
(9.679255817996879 0.1795742433613931 -7.957482801072075e-10)
(9.706243022948891 0.2744072126346583 -7.024450167103591e-10)
(6.398293869725119 0.817521866255253 4.506922764489752e-10)
(7.31547555932061 0.9339861202710633 5.219523933359663e-10)
(8.181611468773855 0.9912637750842985 6.079083374290415e-10)
(8.897316958616544 1.040058333431841 7.597881749234253e-10)
(9.222410161600065 1.007243144619366 1.006069530211809e-09)
(9.299266576402839 0.9520415628782837 1.167922514751787e-09)
(9.330831851696718 0.8659981849560839 1.335597647477664e-09)
(9.344235513010972 0.7909202717339978 1.384199374549633e-09)
(9.3700953068708 0.7052392263331971 1.401580355253447e-09)
(9.385937587281429 0.6363846510361254 1.378600103377603e-09)
(9.310870648630056 0.5785334476345066 1.248548997508205e-09)
(8.553080766539921 0.5090377362262926 8.934635954375682e-10)
(6.759466573509762 0.3182330602310999 5.686642671561069e-10)
(8.568264107664852 0.2432094533498648 2.787543066668019e-10)
(9.760337748797166 0.3535049826708401 -5.07892562006595e-10)
(4.969655919306343 -0.5554423164483423 3.755730621538008e-10)
(5.723925669629381 -0.6297758625750322 4.154168640757806e-10)
(6.538240878104546 -0.6745003588704039 4.372122876616552e-10)
(7.49572360218222 -0.7112388018157045 4.476184113834864e-10)
(8.57499461867811 -0.7101433621372789 4.173503050506138e-10)
(9.303151739382958 -0.6659894554318434 3.446486242916212e-10)
(9.515871012722318 -0.5606969118412392 2.283816247957058e-10)
(9.584351048390625 -0.4517440828176917 1.145839631280673e-10)
(9.615944893046498 -0.3179484574004199 -2.475874113903141e-10)
(9.633382251899938 -0.2055627196059041 -5.452933221220809e-10)
(9.66308566589524 -0.07408934037919113 -8.855913872683553e-10)
(9.682331171279438 0.03057763721521643 -1.062301644012549e-09)
(9.716798358668187 0.147521539536822 -1.194615029764751e-09)
(9.740535465512309 0.2380474635635706 -1.182034487396401e-09)
(9.77080618720667 0.3379086283654069 -1.053313712140927e-09)
(6.474213205322626 0.8156556725403686 4.504784762440575e-10)
(7.393945305181267 0.9408136096700765 5.249250691283794e-10)
(8.270942701180086 0.9995443110312252 6.162178652007475e-10)
(8.995417585088642 1.054033002303778 7.771944039719447e-10)
(9.306459603016956 1.02377572779153 1.047900436473185e-09)
(9.366434103327444 0.9768574899907316 1.23437356803896e-09)
(9.385380386252629 0.8930196381383614 1.436386832549764e-09)
(9.391861846977385 0.8241346172001935 1.533740402352634e-09)
(9.416565386041755 0.740524530870237 1.583875793833531e-09)
(9.437420807411115 0.6716057801025791 1.572776226843106e-09)
(9.484047055073843 0.6018753577946075 1.553763538334924e-09)
(9.484794046691361 0.5568694994467335 1.418663230942792e-09)
(8.868353385611462 0.5093282956858665 1.006466175153291e-09)
(7.153809243766076 0.3443175768227189 5.575431171044655e-10)
(8.934268484028697 0.303108179220804 1.492220756554411e-10)
(9.843721611520184 0.4111642698280034 -8.142357912044757e-10)
(5.146210494472728 -0.5626767024743484 3.780280169185357e-10)
(5.932891303185636 -0.6431869049498248 4.229026531635108e-10)
(6.777011215940419 -0.6957650288277762 4.427131294497259e-10)
(7.727671495867239 -0.7402183404604217 4.501445359581526e-10)
(8.758629866341826 -0.7456906542454459 4.187023693600475e-10)
(9.428825739270176 -0.7063804154506933 3.2265641538578e-10)
(9.605552593028094 -0.601449003254039 1.889116825374563e-10)
(9.655553070349164 -0.4951611503302016 8.364165583833872e-11)
(9.672610834771639 -0.3587293151309469 -3.537705174677388e-10)
(9.682729629864001 -0.2469543947815171 -7.273290464285132e-10)
(9.705617990546751 -0.1121822264837486 -1.083559976586673e-09)
(9.720690654131973 -0.006249883293712746 -1.286606850116843e-09)
(9.750741667490994 0.1146230306080986 -1.445693114299935e-09)
(9.770958070031842 0.2092961559868645 -1.505056276105385e-09)
(9.802045721244571 0.3073513874096692 -1.512090443181543e-09)
(9.81782887520621 0.3905041700478225 -1.343696550443363e-09)
(6.550133500068579 0.8119672694779951 4.501626369705161e-10)
(7.474420997162733 0.9411080174457287 5.257189179882274e-10)
(8.353765275299281 1.007867802811541 6.232529997673525e-10)
(9.079775635817313 1.065608883492498 7.934556583400436e-10)
(9.37474590185575 1.037536175474679 1.079657437835093e-09)
(9.420227536617599 0.9983659153939008 1.28769742803001e-09)
(9.427495357404352 0.9158815618214451 1.522458090344691e-09)
(9.426949454862623 0.8542149830584531 1.62567897036585e-09)
(9.445032337364754 0.7708730744265812 1.697542706636997e-09)
(9.462905009693976 0.7067916946737405 1.701605484870208e-09)
(9.501432885889839 0.6370175961622722 1.662897315271585e-09)
(9.548274460934294 0.5791249518744539 1.65594832659193e-09)
(9.61257285921659 0.541545538338869 1.563734970232873e-09)
(9.142784127417341 0.5150662871470655 1.128148883993869e-09)
(7.534051974033754 0.3767207325014303 5.639216381319228e-10)
(9.216759617437388 0.3611606954686496 -1.166407435748861e-11)
(9.899041490972955 0.4682509982532325 -1.096119223855855e-09)
(5.307148780915593 -0.5671612646534216 3.796151972097799e-10)
(6.125776265429638 -0.6525658551787518 4.274922480716114e-10)
(7.007207806011648 -0.7123710911116344 4.585435864132435e-10)
(7.991644255492732 -0.7670548621153992 4.54767447699451e-10)
(8.966650061630853 -0.7778363051012422 4.152148031517075e-10)
(9.557714435523444 -0.7448655732982599 3.157503256030299e-10)
(9.695251993488124 -0.6411683900913919 1.473250721654665e-10)
(9.727524602358889 -0.5378193529977005 3.475606579836952e-11)
(9.730088656440833 -0.3986263803686144 -4.440399450256287e-10)
(9.733271344498739 -0.2874133830410406 -8.822745548531399e-10)
(9.749132835269943 -0.148971369943158 -1.274234789125155e-09)
(9.760313725663075 -0.04162336382433343 -1.436352666112024e-09)
(9.785596236152259 0.08350175337580741 -1.550078206602508e-09)
(9.802001895791195 0.1796186796380256 -1.609657246867918e-09)
(9.82809673091595 0.2854487720857318 -1.633022344793634e-09)
(9.847686896331885 0.3641885672394986 -1.64581240475505e-09)
(9.859877711633755 0.4462572198472573 -1.544315055620975e-09)
(6.641247899002422 0.8072943340676885 4.507799645749537e-10)
(7.553341641586278 0.9386508801991628 5.251926892355485e-10)
(8.431997292656947 1.011732558808369 6.264460956438858e-10)
(9.155714161502214 1.074964069428529 8.073403420534363e-10)
(9.434000008167835 1.049079223517643 1.107972571233353e-09)
(9.467382034188754 1.017194693324084 1.3351979347123e-09)
(9.464040361502855 0.9355387050494668 1.586290557060065e-09)
(9.457788520523158 0.8810317513355004 1.686721252206526e-09)
(9.469409033058112 0.7987380590754196 1.740037496762073e-09)
(9.482163302478503 0.7377029356920507 1.763100196697927e-09)
(9.516994451655638 0.6686273390599125 1.706848841437594e-09)
(9.550147380659562 0.6148788929214272 1.65124826539286e-09)
(9.605909218073126 0.5614431136739007 1.682201163190312e-09)
(9.703042803585154 0.5341717092596809 1.651980745081022e-09)
(9.374350636185206 0.5265103000692067 1.249131429585591e-09)
(7.887289421366606 0.4127656257599094 5.914353240430266e-10)
(9.430881819832857 0.4194758374048437 -2.004931178460854e-10)
(9.930819408003901 0.5162310328923804 -1.299911727389321e-09)
(5.460955380494807 -0.5695538244921676 3.8177746256568e-10)
(6.30492189726557 -0.6588408882724147 4.271934032953784e-10)
(7.220671220633498 -0.7240721457125201 4.675234635536074e-10)
(8.247132207268539 -0.7875573363952407 4.722625563244904e-10)
(9.194415275519699 -0.8038678658894102 4.105255877928776e-10)
(9.701057755652107 -0.7793133206884382 3.057575422781912e-10)
(9.790818335492652 -0.6793862830349793 1.307748047038683e-10)
(9.803162052862916 -0.5795028748911543 -2.18881878873374e-11)
(9.790326066641304 -0.4377328779783355 -5.410316067405432e-10)
(9.786350615936444 -0.3272272081461677 -9.915086821705157e-10)
(9.794763767520941 -0.1845443959776633 -1.405056963408012e-09)
(9.801905108936722 -0.07582951108067931 -1.562883798492794e-09)
(9.822370008522716 0.05359467304203562 -1.575490716818307e-09)
(9.834955834162491 0.1521798950941883 -1.585691340479421e-09)
(9.857937288893197 0.2615709830178122 -1.56681114551397e-09)
(9.870669042407766 0.346310110517378 -1.593817721356803e-09)
(9.890228292091811 0.4279997234963191 -1.60762738418577e-09)
(9.89110105359793 0.4941811099360342 -1.583468647974278e-09)
(6.74992264349081 0.8032543827382947 4.528726931307356e-10)
(7.636128146893506 0.9330979005414354 5.243796509210632e-10)
(8.506487915405303 1.011754767610027 6.263711093897001e-10)
(9.225888381413924 1.080504042100064 8.161528198895934e-10)
(9.488395980633717 1.058349411203199 1.130623557419685e-09)
(9.51155828353826 1.033579493297373 1.381685290412038e-09)
(9.498241898117769 0.9526504804522409 1.641594268496229e-09)
(9.487331076146441 0.9057020197006499 1.720915372566275e-09)
(9.493259817259888 0.8233346634227529 1.742518603038945e-09)
(9.501841774670138 0.7664320254918958 1.759841176779976e-09)
(9.530877585532332 0.6970579770831064 1.70260895806647e-09)
(9.560059977099707 0.6447664288630404 1.620164098384025e-09)
(9.60614220415928 0.5957708581094633 1.541685708700928e-09)
(9.653974554910398 0.5553467526232446 1.624405828257203e-09)
(9.766587477092049 0.5349270247427039 1.669216869125657e-09)
(9.562519280500048 0.542491792512253 1.354167535555519e-09)
(8.205211510264585 0.4530780379731801 6.246229404992661e-10)
(9.584956823820848 0.4727931692119496 -3.991496304939119e-10)
(9.951493621280516 0.5616657650890812 -1.419981609196449e-09)
(5.605481053977281 -0.5700337999688094 3.842177204646673e-10)
(6.473449338789719 -0.6624564537394168 4.284128515302317e-10)
(7.41941597841873 -0.7317429481782383 4.628374488957241e-10)
(8.486084664988997 -0.8023546229809623 4.791837021976802e-10)
(9.410117397382969 -0.8215569658697058 4.143131373315212e-10)
(9.852512086552121 -0.8053355264952434 2.883826918386727e-10)
(9.896964037588694 -0.7130734162201452 1.142321047430304e-10)
(9.885861939792447 -0.6195344461043649 -5.013404917013173e-11)
(9.855173478403646 -0.4759869171318881 -6.416191345928545e-10)
(9.84299584450771 -0.3662811884374768 -1.095132239161219e-09)
(9.84326365095523 -0.2188078412981629 -1.469761569332385e-09)
(9.845951042760445 -0.1088748890887835 -1.617678888126911e-09)
(9.861071302579864 0.02525794751390731 -1.572917247056402e-09)
(9.870132120132673 0.1259016427312245 -1.513228279280297e-09)
(9.888527432741336 0.2404772673634802 -1.441921997134113e-09)
(9.899172412601915 0.3260654666893314 -1.445092830252958e-09)
(9.910914259977339 0.4150407952436261 -1.438969690847094e-09)
(9.92041388578976 0.4813380867191691 -1.452571967094072e-09)
(9.917021456107756 0.5422833768053799 -1.484118410203277e-09)
(6.852084664734675 0.7979334456320349 4.547699650841104e-10)
(7.729949760471322 0.9274231802791644 5.251099703206843e-10)
(8.583454650752 1.007705652356623 6.234478011684832e-10)
(9.292388185767591 1.082323367818257 8.199216335665582e-10)
(9.540108468807974 1.064607663009278 1.143987894593273e-09)
(9.554882733378223 1.047311787322845 1.416119488815504e-09)
(9.532089679116709 0.9676321798808697 1.690801232663749e-09)
(9.517358060821058 0.928062859315371 1.749026406638263e-09)
(9.518016646736971 0.8447491533342155 1.737179126757331e-09)
(9.522431763420037 0.7926129281265031 1.72594842904887e-09)
(9.54663041766624 0.7229285526360826 1.648700496400413e-09)
(9.57055534819432 0.6724865450880153 1.580969781456709e-09)
(9.613346409173833 0.6213443892619525 1.452128434974662e-09)
(9.655211580084092 0.586521888585122 1.405347094506972e-09)
(9.701140436363026 0.5563854520786695 1.503940840581021e-09)
(9.810571802467985 0.5436036704881251 1.616387606031841e-09)
(9.708955777993738 0.5627945596438919 1.425300336640688e-09)
(8.484888988488587 0.4941282548712672 6.444303746487966e-10)
(9.695739769989558 0.5229918973408717 -5.982668860800902e-10)
(9.963194651758895 0.6013477642115186 -1.451606534034091e-09)
(5.745744377618777 -0.5687970642065837 3.868969707729702e-10)
(6.633673113234758 -0.6639001207045225 4.309066892651578e-10)
(7.606355610211186 -0.7359239970685162 4.619821133700652e-10)
(8.709361711152786 -0.8123677812482348 4.698174402434594e-10)
(9.605269093545669 -0.8325448447131288 4.091691396432933e-10)
(9.99474533110874 -0.8225285973246366 2.734485495944421e-10)
(10.00786778625299 -0.7370129759106588 8.446648073338294e-11)
(9.977976168825684 -0.655310100959583 -7.312977883100388e-11)
(9.926993527827017 -0.5127402541018985 -7.058910854614598e-10)
(9.904032680159712 -0.4043589738517929 -1.198138606550364e-09)
(9.89499288232577 -0.2518994786414998 -1.535977358401358e-09)
(9.892732754732297 -0.1408203129148618 -1.607905408976955e-09)
(9.901959514719165 -0.00177703062762747 -1.523683449759735e-09)
(9.907036513445741 0.1012310149255928 -1.429395772620691e-09)
(9.921549116448727 0.2200615834798476 -1.316566598241518e-09)
(9.927428098415721 0.3090573949719934 -1.296554444994065e-09)
(9.937925531192452 0.4004169507510038 -1.242511566903256e-09)
(9.939109327422623 0.4712481400279279 -1.230112759463852e-09)
(9.944800657657497 0.5346116651294083 -1.193654846746002e-09)
(9.935722135633268 0.5845941816869558 -1.292032441644397e-09)
(6.945708738120093 0.7898975163235064 4.561354120216842e-10)
(7.834588828728851 0.9214793839369033 5.266104192730472e-10)
(8.67234939666551 1.001683996370112 6.231561551488609e-10)
(9.360673558728145 1.080558935965314 8.192894566684963e-10)
(9.59051124166027 1.067598771535004 1.150096399264654e-09)
(9.59848997295326 1.057894837579188 1.433611327939151e-09)
(9.566899111982808 0.9805835685678593 1.717514179646206e-09)
(9.548587152645972 0.9481569043234134 1.773772455971928e-09)
(9.543682919360965 0.8635127742847785 1.732368073507947e-09)
(9.544127734611521 0.8166346693185506 1.6967961650726e-09)
(9.563602235662163 0.7458721891498316 1.580163491262812e-09)
(9.583168166040286 0.6978186579010418 1.512678985427915e-09)
(9.620861816528532 0.6460261961144477 1.415072491963383e-09)
(9.656974125586521 0.609498603253427 1.322749026121098e-09)
(9.705952420599585 0.5828893245730374 1.257051456688682e-09)
(9.746753741916034 0.565247865138446 1.354857233805006e-09)
(9.842491633186331 0.5590951760303421 1.514808618204512e-09)
(9.820948937947053 0.5860972393599987 1.453482889996908e-09)
(8.72628064258708 0.5356019246143418 6.550067237636937e-10)
(9.771641002387204 0.567580286745885 -7.792706177348043e-10)
(9.970008781699274 0.6372940729226959 -1.405186541964759e-09)
(5.880776319492469 -0.565919991865134 3.894315070552118e-10)
(6.787875594994935 -0.6633428832389769 4.336311487953666e-10)
(7.784447676290259 -0.7371874377732528 4.640891284156529e-10)
(8.920084342650412 -0.8182842222448563 4.662682663250364e-10)
(9.782392025195861 -0.8380446285893522 3.955245748405852e-10)
(10.12411970166334 -0.8334592940372285 2.591619545065643e-10)
(10.11431270742494 -0.7514310443979065 5.102150312365482e-11)
(10.07455959745749 -0.6823845737938906 -1.089821102232576e-10)
(10.00719786175786 -0.545466530593248 -7.540296590701896e-10)
(9.970756432391148 -0.4408696422013345 -1.265061384049309e-09)
(9.950341561977476 -0.2838391012069462 -1.605894713270399e-09)
(9.942353591461293 -0.1715958556492331 -1.617492162619543e-09)
(9.945015163072011 -0.02743122835268018 -1.449084526593253e-09)
(9.945938491089999 0.07790091285397945 -1.335293276177667e-09)
(9.955426048884334 0.2013952499228387 -1.21217891334305e-09)
(9.958433481931307 0.292505192573656 -1.164741619940899e-09)
(9.963483745305496 0.3887223025087659 -1.059282493427886e-09)
(9.96404706986951 0.4604697531989226 -9.80501973586171e-10)
(9.961723659452989 0.5278748237719502 -9.060569100462076e-10)
(9.961123590568461 0.5803283064724402 -8.789244611879583e-10)
(9.949389308949234 0.6232126343075562 -1.015374524793207e-09)
(7.032512421671652 0.7803095299953744 4.573708952810443e-10)
(7.935670278087061 0.9136943025749418 5.283026260804576e-10)
(8.779604089968787 0.9940310280325322 6.252495094449048e-10)
(9.438068932212612 1.075898093803881 8.230076805508345e-10)
(9.642036900666996 1.067017438491784 1.153041659721844e-09)
(9.643080808141606 1.064989200725963 1.442619258733562e-09)
(9.603625149337148 0.9913427762519711 1.723638597208034e-09)
(9.581366348152203 0.9658513422744228 1.778993473395225e-09)
(9.570328847572723 0.8800194417849032 1.728398286638786e-09)
(9.566816582798685 0.8386658636007092 1.667116429032254e-09)
(9.581573740628848 0.7663114044449747 1.519193792134597e-09)
(9.596797932604673 0.7208430202570422 1.443315546676028e-09)