/*--------------------------------*- C++ -*----------------------------------*\
| =========                 |                                                 |
| \\      /  F ield         | OpenFOAM: The Open Source CFD Toolbox           |
|  \\    /   O peration     | Version:  5.0                                   |
|   \\  /    A nd           | Web:      www.OpenFOAM.org                      |
|    \\/     M anipulation  |                                                 |
\*---------------------------------------------------------------------------*/
FoamFile
{
    version     2.0;
    format      ascii;
    class       volScalarField;
    location    "20000";
    object      betaFieldInversion;
}
// * * * * * * * * * * * * * * * * * * * * * * * * * * * * * * * * * * * * * //

dimensions      [0 0 0 0 0 0 0];

internalField   nonuniform List<scalar> 
14751
(
4.84916
4.84916
4.84916
4.84916
4.84916
4.84916
4.84916
4.84916
4.84916
4.84916
4.84916
4.84916
4.84916
4.84916
4.84916
4.84916
4.84916
4.84916
4.84916
4.84916
4.84916
4.84916
4.84916
4.84916
4.84916
4.84916
4.84916
4.84916
4.84916
4.84916
4.84916
4.84916
4.84916
4.84916
4.84916
4.84916
4.84916
4.84916
4.84916
4.84916
4.84916
4.84916
4.84916
4.84916
4.84916
4.84916
4.84916
4.84916
4.84916
4.84916
4.84916
4.84916
4.84916
4.84916
4.84916
4.84916
4.84916
4.84916
4.84916
4.84916
4.84916
4.84916
4.84916
4.84916
4.84916
4.84916
4.84916
4.84916
4.84916
4.84916
4.84916
4.84916
4.84916
4.84916
4.84916
4.84916
4.84916
4.84916
4.84916
4.84916
4.84916
4.84916
4.84916
4.84916
4.84916
4.84916
4.84916
4.84916
4.84916
4.84916
4.84916
4.84916
4.84916
4.84916
4.84916
4.84916
4.84916
4.84916
4.84916
4.72946
4.62319
4.60209
4.60174
4.61054
4.63179
4.64586
4.65192
4.65881
4.66926
4.68141
4.68914
4.69821
4.7058
4.71523
4.72523
4.73767
4.74838
4.7586
4.76804
4.77512
4.77964
4.78193
4.78269
4.78235
4.7817
4.78104
4.78048
4.78016
4.78014
4.78031
4.78054
4.78083
4.78128
4.77902
4.77976
4.78036
4.77968
4.77873
4.77779
4.77711
4.77674
4.77679
4.77731
4.77699
4.77569
4.77484
4.77337
4.77159
4.77074
4.77014
4.76986
4.77127
4.77237
4.77378
4.77533
4.77719
4.77888
4.78068
4.78258
4.78509
4.78741
4.78963
4.7915
4.79337
4.79385
4.79307
4.79478
4.79648
4.79663
4.79577
4.79316
4.78939
4.7816
4.77382
4.76675
4.76443
4.75801
4.75372
4.74392
4.72278
4.70383
4.68867
4.67718
4.66491
4.65097
4.63478
4.61652
4.59837
4.57827
4.56373
4.50354
4.49446
4.48304
4.47341
4.46666
4.48334
4.49084
4.49497
4.22978
3.85941
3.78414
3.79161
3.84068
3.92856
4.01145
4.03603
4.05315
4.09576
4.14859
4.17593
4.21413
4.23878
4.27219
4.30254
4.34571
4.39118
4.43028
4.46915
4.4988
4.51689
4.52361
4.52219
4.51449
4.50487
4.49486
4.48492
4.47614
4.46912
4.46339
4.45811
4.4531
4.44865
4.43235
4.42789
4.42494
4.41708
4.40178
4.38872
4.3797
4.37408
4.37378
4.3805
4.37975
4.36829
4.36664
4.35817
4.34926
4.34722
4.34383
4.33983
4.34532
4.34755
4.35461
4.36485
4.37804
4.38906
4.40007
4.4138
4.43149
4.44728
4.46269
4.47565
4.4882
4.49458
4.48504
4.5004
4.51638
4.52047
4.51749
4.50212
4.47742
4.42114
4.37014
4.33172
4.34134
4.31986
4.29748
4.2387
4.10864
3.99979
3.92002
3.8689
3.82092
3.77284
3.71486
3.65382
3.59794
3.54016
3.50699
3.28346
3.26532
3.26574
3.26801
3.25799
3.36311
3.41538
3.46075
2.52245
2.4446
2.3993
2.40384
2.50084
2.65776
2.85942
2.90494
2.9222
3.02302
3.15178
3.20078
3.30597
3.35799
3.42873
3.45582
3.51661
3.62569
3.6971
3.79066
3.8703
3.92042
3.93551
3.92396
3.89105
3.85092
3.80765
3.76265
3.71995
3.68254
3.64944
3.61827
3.58731
3.5563
3.50025
3.46653
3.44166
3.41086
3.33578
3.2757
3.23726
3.21454
3.22256
3.27418
3.29166
3.24689
3.26254
3.23836
3.22883
3.25018
3.24819
3.236
3.23018
3.20907
3.21734
3.24811
3.29069
3.32153
3.34779
3.39705
3.45325
3.49951
3.54938
3.58919
3.62725
3.66129
3.59978
3.66444
3.73715
3.76377
3.76476
3.72068
3.63589
3.42495
3.26792
3.17831
3.28801
3.2809
3.21996
3.07037
2.74395
2.53351
2.40195
2.31673
2.24413
2.19847
2.1186
2.07584
2.02109
1.95149
1.89816
1.62906
1.65696
1.72185
1.78513
1.75238
1.90417
1.97253
2.0586
1.51037
1.44229
1.43003
1.46082
1.53978
1.65358
1.89277
1.91102
1.88826
1.99463
2.12382
2.14489
2.34867
2.44844
2.54647
2.49236
2.4627
2.58048
2.56126
2.65983
2.7884
2.8952
2.94566
2.94819
2.91265
2.86327
2.80403
2.73792
2.67114
2.6097
2.55416
2.5024
2.45064
2.39763
2.32382
2.26633
2.22308
2.18283
2.06248
1.97378
1.92072
1.89369
1.93612
2.07983
2.13517
2.03661
2.06414
1.98495
2.0283
2.15851
2.18751
2.19623
2.12361
2.00374
1.97943
2.01858
2.05835
2.07402
2.07366
2.15665
2.21821
2.25579
2.31793
2.34762
2.38118
2.46543
2.32942
2.40206
2.50831
2.57044
2.59964
2.56471
2.45153
2.14975
2.00683
2.01068
2.20174
2.22523
2.05236
1.95606
1.70403
1.6107
1.55808
1.45149
1.37006
1.34825
1.22863
1.28244
1.27773
1.22791
1.18068
1.11909
1.08358
1.13166
1.21204
1.20924
1.28401
1.22961
1.27582
1.14252
0.978421
0.951927
0.930257
0.954909
1.0348
1.41188
1.27609
1.2132
1.27773
1.35369
1.36049
1.63362
1.74137
1.82903
1.68227
1.5922
1.68995
1.54927
1.57946
1.66942
1.78479
1.86549
1.90471
1.9073
1.89315
1.86215
1.81931
1.77002
1.72073
1.67411
1.63043
1.58675
1.542
1.48834
1.44166
1.40232
1.36584
1.26932
1.21429
1.17493
1.15191
1.19387
1.31732
1.32402
1.2217
1.24266
1.12757
1.21278
1.40403
1.45908
1.46619
1.39781
1.24038
1.22636
1.26207
1.28265
1.27308
1.23925
1.3326
1.39524
1.42342
1.47092
1.4694
1.48483
1.61353
1.50899
1.51581
1.57728
1.65791
1.75445
1.81108
1.77889
1.54404
1.48011
1.93695
2.27892
1.96561
1.48855
1.45533
1.27387
1.2943
1.27348
1.16323
1.10859
1.08705
0.959814
1.016
1.02762
0.98759
1.04861
1.01813
0.930694
0.921429
0.955827
0.947075
1.03556
0.923639
0.952059
0.728813
0.664618
0.641163
0.593262
0.601961
0.65093
1.11168
0.858465
0.783164
0.895266
0.954047
0.96204
1.31798
1.41092
1.50107
1.23495
1.1449
1.25444
1.08302
1.0711
1.09476
1.16589
1.22403
1.26287
1.28445
1.29882
1.29884
1.28883
1.27027
1.24734
1.22316
1.20033
1.17616
1.14994
1.11944
1.09107
1.0662
1.04036
0.957161
0.925216
0.894832
0.876052
0.914889
1.00377
0.980822
0.896127
0.928903
0.807896
0.881727
1.0477
1.08635
1.0615
0.999022
0.871806
0.867857
0.894402
0.905505
0.883251
0.847612
0.916626
0.975159
1.01408
1.04
1.01308
1.04066
1.17093
1.10832
1.06938
1.06819
1.11042
1.21326
1.28404
1.29938
1.22832
1.21563
2.56257
3.49118
2.22591
0.954566
1.16682
0.959135
1.0921
1.07123
1.01593
0.971477
0.926195
0.755614
0.817708
0.810182
0.76854
0.863069
0.820725
0.7726
0.73604
0.711402
0.69058
0.690408
0.68792
0.70482
0.551918
0.523203
0.506145
0.497591
0.500856
0.523328
0.595528
0.611778
0.629229
0.71801
0.718637
0.749975
0.839245
0.911819
0.963428
0.966565
0.957304
1.19644
0.899828
0.97535
0.959828
1.00555
1.04429
1.07432
1.09268
1.11747
1.12429
1.12322
1.1131
1.09814
1.08065
1.06542
1.04693
1.0261
1.00085
0.978391
0.959263
0.937974
0.810127
0.788108
0.75114
0.728535
0.779701
0.938845
0.887833
0.732042
0.916876
0.709904
0.846796
1.03791
1.07922
1.04469
0.967901
0.831659
0.790072
0.833155
0.831262
0.774714
0.716461
0.78625
0.812134
0.842601
0.859619
0.788404
0.852731
0.898605
0.915826
0.912314
0.894788
0.912567
0.960576
1.00662
1.10817
0.976516
1.00306
1.14114
1.37604
1.21889
1.2061
1.07164
0.89167
1.17091
1.09754
1.05318
1.00863
0.962022
0.896502
0.855655
0.81026
0.759952
0.726138
0.678943
0.637653
0.604566
0.579346
0.561956
0.552336
0.545651
0.545285
0.502096
0.489775
0.479528
0.480866
0.486029
0.503471
0.533322
0.561364
0.588895
0.6356
0.673576
0.713301
0.767137
0.829771
0.869292
0.910263
0.896607
0.977179
0.850936
0.924925
0.957294
1.004
1.03701
1.06046
1.07432
1.08792
1.0924
1.0899
1.08104
1.0674
1.05085
1.0359
1.0177
0.995315
0.973998
0.953876
0.937185
0.915772
0.844158
0.810842
0.798123
0.79345
0.902744
0.913554
0.900832
0.893696
0.836408
0.719621
0.880631
1.1446
1.10427
1.03637
0.956674
0.86817
0.862946
0.805303
0.761899
0.708037
0.680467
0.740701
0.740869
0.748598
0.744887
0.687704
0.784143
0.82544
0.842033
0.857315
0.868505
0.887519
0.922736
0.953089
0.96315
0.960634
1.05375
1.05326
1.10107
1.08488
1.07246
1.01611
0.949151
0.969285
0.9482
0.92731
0.894418
0.8565
0.813575
0.771577
0.728944
0.685922
0.646656
0.608919
0.577253
0.551583
0.531743
0.518221
0.509825
0.5033
0.499451
0.504995
0.506317
0.5045
0.513867
0.524446
0.542949
0.568542
0.59863
0.62957
0.666191
0.703813
0.743793
0.79135
0.847877
0.891745
0.942768
0.87942
0.95926
0.963544
0.989237
1.01257
1.04054
1.06465
1.08252
1.09365
1.10097
1.10179
1.0967
1.08608
1.07095
1.05284
1.03532
1.01356
0.991576
0.971385
0.94934
0.932899
0.918512
0.909156
0.900162
0.905151
0.910284
0.944802
0.964871
0.961154
0.973194
0.884131
0.825098
0.915761
1.02897
1.04792
1.00678
0.901806
0.886867
0.917139
0.893447
0.849655
0.813394
0.785583
0.78166
0.773852
0.76861
0.762723
0.745032
0.755068
0.763792
0.770217
0.779509
0.78676
0.79671
0.808675
0.824236
0.838921
0.85923
0.898524
0.927594
0.942616
0.933168
0.92838
0.885049
0.850015
0.838935
0.821311
0.803655
0.780957
0.754466
0.725127
0.694383
0.663089
0.631487
0.602062
0.577426
0.555519
0.537907
0.524544
0.515689
0.509732
0.506219
0.502402
0.549819
0.560642
0.568099
0.585286
0.602939
0.622592
0.648248
0.679127
0.707739
0.740636
0.775862
0.809924
0.852564
0.914094
0.935882
0.970347
0.975126
1.01032
1.01937
1.03843
1.05882
1.08006
1.09797
1.1105
1.11729
1.11961
1.11648
1.10822
1.09496
1.07765
1.05854
1.03598
1.01394
0.9899
0.969874
0.951576
0.936974
0.926409
0.913323
0.910251
0.920128
0.925234
0.949544
0.95198
0.939736
0.91919
0.888111
0.858907
0.884221
0.943117
0.969839
0.945286
0.918893
0.900593
0.914251
0.873843
0.837708
0.805926
0.782099
0.765128
0.75126
0.73916
0.729418
0.717231
0.712514
0.710126
0.711056
0.715162
0.718196
0.723759
0.730597
0.741827
0.754937
0.774421
0.795258
0.808956
0.811272
0.800852
0.788314
0.765615
0.750165
0.739647
0.726956
0.714587
0.700328
0.683901
0.665728
0.646676
0.627208
0.60743
0.588828
0.573622
0.561429
0.552483
0.546016
0.542162
0.540258
0.541103
0.541513
0.62896
0.645356
0.658953
0.678516
0.699504
0.71874
0.748768
0.776289
0.796042
0.819748
0.850703
0.87186
0.898978
0.93733
0.969699
1.00176
1.01648
1.04481
1.06224
1.07995
1.09682
1.11241
1.12477
1.13226
1.13478
1.13278
1.12587
1.11452
1.09866
1.07884
1.0552
1.03149
1.00876
0.986889
0.968074
0.95148
0.938879
0.930941
0.924455
0.928791
0.952871
0.952702
0.960296
0.951942
0.930156
0.912425
0.893612
0.879172
0.894424
0.938865
0.95211
0.926546
0.938292
0.911374
0.878824
0.842994
0.810005
0.780086
0.754111
0.732395
0.714563
0.699023
0.68657
0.674632
0.666384
0.660658
0.658749
0.659419
0.660161
0.663429
0.667941
0.676194
0.685902
0.697705
0.706087
0.707933
0.70354
0.694533
0.685813
0.674955
0.669755
0.664947
0.658968
0.653195
0.64714
0.640356
0.632864
0.625088
0.617001
0.608619
0.600612
0.595378
0.592448
0.591953
0.59226
0.593652
0.597164
0.603928
0.609536
0.723036
0.738043
0.754469
0.774165
0.794292
0.804119
0.838591
0.854706
0.855774
0.872792
0.895666
0.917392
0.941834
0.971718
1.00146
1.03158
1.05261
1.07706
1.0962
1.11223
1.12525
1.13546
1.14236
1.14474
1.14284
1.13671
1.12605
1.11126
1.09151
1.06941
1.04512
1.0208
0.998019
0.977348
0.960025
0.945265
0.93541
0.930353
0.928317
0.944935
0.957297
0.973031
0.964703
0.941348
0.919044
0.906844
0.891707
0.886095
0.89965
0.931778
0.942142
0.914969
0.91178
0.876091
0.838023
0.80495
0.773112
0.744275
0.717996
0.695226
0.675897
0.659281
0.645693
0.633977
0.625061
0.618692
0.615416
0.61418
0.613839
0.615514
0.61812
0.62294
0.627974
0.632178
0.63319
0.630339
0.624726
0.618937
0.615368
0.612988
0.613806
0.613875
0.614419
0.616221
0.618471
0.62032
0.622034
0.624581
0.626775
0.62882
0.630779
0.634976
0.640736
0.647897
0.654912
0.661824
0.671541
0.686418
0.696988
0.815874
0.826324
0.835862
0.851625
0.862463
0.864621
0.882339
0.89946
0.911102
0.925188
0.944072
0.963188
0.984554
1.00917
1.03585
1.06261
1.08413
1.10475
1.12146
1.13414
1.14274
1.14755
1.149
1.14623
1.13989
1.12959
1.11443
1.09668
1.07559
1.05192
1.02701
1.00309
0.981577
0.962779
0.947939
0.935812
0.92962
0.928426
0.928102
0.962196
0.968045
1.00097
0.959303
0.929422
0.907146
0.896071
0.891618
0.896276
0.913281
0.93779
0.937025
0.887259
0.868001
0.835064
0.799227
0.768717
0.738555
0.711467
0.686363
0.664433
0.645256
0.628864
0.61515
0.603951
0.595241
0.58895
0.584962
0.58264
0.581434
0.581518
0.582231
0.583779
0.584964
0.584778
0.583416
0.581007
0.577304
0.575246
0.576163
0.579099
0.584618
0.590482
0.597664
0.607329
0.617163
0.626365
0.635955
0.646482
0.656746
0.668313
0.679217
0.691999
0.705248
0.718343
0.731167
0.74111
0.755543
0.775857
0.789104
0.89237
0.891779
0.899193
0.902865
0.914882
0.921497
0.937093
0.95233
0.964867
0.97754
0.994126
1.01047
1.02855
1.04779
1.06948
1.09099
1.10909
1.12484
1.13685
1.1449
1.14875
1.14854
1.14514
1.13688
1.12634
1.11275
1.09564
1.07583
1.05327
1.02859
1.00393
0.981727
0.962692
0.946634
0.935191
0.926387
0.925486
0.927175
0.930544
0.948549
0.985635
0.97245
0.942429
0.909006
0.901319
0.898945
0.880991
0.907535
0.904685
0.930392
0.886823
0.855887
0.83218
0.799048
0.767904
0.740019
0.712614
0.688039
0.665138
0.64514
0.627249
0.612071
0.599234
0.589077
0.581099
0.575199
0.5709
0.5679
0.565642
0.564024
0.562977
0.562428
0.561544
0.560029
0.559613
0.55945
0.55916
0.561629
0.567511
0.575306
0.587376
0.599047
0.612412
0.628475
0.644727
0.660068
0.676747
0.692937
0.709367
0.730993
0.745766
0.763707
0.780917
0.799791
0.814542
0.821483
0.844632
0.864755
0.872832
0.936836
0.939459
0.951445
0.95848
0.970401
0.978834
0.992979
1.00729
1.01957
1.02987
1.04328
1.05558
1.06977
1.08319
1.09851
1.11348
1.12605
1.1361
1.14247
1.14554
1.14461
1.13934
1.13185
1.12119
1.10798
1.09215
1.07367
1.05275
1.02942
1.00466
0.981607
0.962361
0.946484
0.93314
0.925712
0.920175
0.924181
0.930454
0.931734
0.942795
0.956335
0.958334
0.927643
0.899974
0.900388
0.909158
0.898029
0.895218
0.909799
0.879606
0.848824
0.823637
0.798234
0.770684
0.744818
0.720093
0.696162
0.674373
0.654268
0.636728
0.620835
0.607594
0.59652
0.588183
0.581717
0.576861
0.573043
0.56996
0.56721
0.56508
0.563955
0.563791
0.563479
0.563257
0.566611
0.570478
0.573839
0.580453
0.590998
0.604496
0.623146
0.639541
0.658918
0.683067
0.703414
0.72175
0.743484
0.764557
0.785009
0.81441
0.823969
0.845257
0.862537
0.884056
0.893223
0.895329
0.923852
0.933453
0.924513
0.993876
0.996147
1.00926
1.01769
1.03041
1.03878
1.0502
1.06167
1.07188
1.07903
1.08851
1.09584
1.1052
1.11231
1.12078
1.1288
1.13531
1.13993
1.14068
1.13937
1.13512
1.12756
1.1174
1.10451
1.08927
1.0717
1.05196
1.03007
1.00585
0.981327
0.960753
0.945115
0.932489
0.921036
0.917448
0.91496
0.920372
0.925851
0.933598
0.941356
0.946382
0.933054
0.906532
0.876837
0.877964
0.900704
0.907445
0.887985
0.871116
0.846789
0.824776
0.801452
0.778903
0.756526
0.735372
0.71436
0.694318
0.675456
0.658871
0.64425
0.630852
0.62009
0.611589
0.605912
0.601839
0.598762
0.596381
0.593475
0.591127
0.59027
0.591352
0.593872
0.596386
0.600317
0.607133
0.615148
0.621353
0.632566
0.649968
0.668995
0.691231
0.714564
0.7385
0.772886
0.789283
0.804768
0.83142
0.853282
0.872674
0.90884
0.899815
0.924757
0.932689
0.95288
0.953801
0.952131
0.96813
0.977491
0.982829
1.0563
1.05992
1.07363
1.08093
1.09227
1.09865
1.10657
1.11371
1.12018
1.12331
1.12832
1.13022
1.13509
1.13651
1.13903
1.14072
1.14081
1.14008
1.13715
1.13209
1.12463
1.11451
1.10203
1.08726
1.07044
1.05161
1.03097
1.00823
0.983138
0.9595
0.942423
0.931245
0.921286
0.910041
0.908788
0.907409
0.921126
0.924392
0.925053
0.935104
0.933016
0.917729
0.886265
0.878241
0.892626
0.921871
0.91473
0.878628
0.856235
0.834007
0.814452
0.794932
0.777818
0.760945
0.744646
0.72795
0.712094
0.696434
0.684893
0.673666
0.663395
0.656103
0.651378
0.649637
0.648805
0.64847
0.649483
0.645079
0.641594
0.644651
0.650685
0.656156
0.662967
0.672027
0.683461
0.697072
0.704073
0.722257
0.745844
0.768142
0.794628
0.821648
0.846404
0.895111
0.888172
0.899103
0.930419
0.941957
0.951469
0.966587
0.974546
0.979093
0.988204
1.0048
1.01202
1.01853
1.02944
1.03762
1.0448
1.12659
1.12951
1.14142
1.14592
1.15424
1.15707
1.16088
1.16335
1.16558
1.16463
1.16521
1.16184
1.16197
1.15729
1.15404
1.15025
1.14566
1.14018
1.13328
1.1247
1.11422
1.10168
1.08722
1.07089
1.05285
1.03312
1.01184
0.988221
0.962324
0.94038
0.928301
0.922257
0.914331
0.901802
0.901969
0.907128
0.92066
0.929751
0.932133
0.934117
0.929178
0.914812
0.887367
0.904849
0.910522
0.913791
0.911202
0.883295
0.86006
0.840799
0.82407
0.811616
0.800973
0.789307
0.777513
0.765334
0.753647
0.742965
0.73752
0.728032
0.720851
0.718438
0.719967
0.724397
0.725212
0.728257
0.728765
0.725591
0.722648
0.734557
0.750607
0.755977
0.767885
0.783891
0.801394
0.822182
0.818257
0.856361
0.886083
0.903231
0.929139
0.95067
0.964729
0.985754
0.998035
0.999299
1.00412
1.01373
1.02511
1.03954
1.04815
1.0562
1.06456
1.07463
1.08417
1.0916
1.10129
1.10922
1.11749
1.20222
1.20317
1.21172
1.21247
1.21692
1.21543
1.2148
1.21212
1.20967
1.20443
1.20003
1.19169
1.18644
1.17774
1.16959
1.16082
1.15162
1.14173
1.13101
1.11919
1.10599
1.09126
1.07506
1.05741
1.03842
1.01808
0.996303
0.971775
0.945124
0.926994
0.921244
0.916862
0.91713
0.895095
0.906547
0.916702
0.926908
0.933818
0.936296
0.936246
0.933284
0.922638
0.911603
0.923916
0.892122
0.915446
0.926804
0.906157
0.88605
0.871038
0.859115
0.855788
0.851375
0.843315
0.833848
0.826042
0.817969
0.812911
0.813276
0.808662
0.806482
0.813779
0.828791
0.841814
0.841405
0.848167
0.84548
0.841856
0.837675
0.880625
0.908683
0.900462
0.918621
0.944958
0.962423
0.981925
0.989755
1.00888
1.01393
1.03611
1.04446
1.0485
1.058
1.07613
1.0895
1.09688
1.10506
1.11298
1.12119
1.13075
1.13898
1.14669
1.15429
1.16189
1.17189
1.17801
1.18434
1.18989
1.1968
1.28229
1.28019
1.28423
1.28047
1.28033
1.27399
1.26876
1.26108
1.25341
1.24387
1.23556
1.22308
1.21252
1.19988
1.18728
1.17417
1.16086
1.14718
1.13308
1.11836
1.10279
1.08614
1.06846
1.04975
1.03007
1.00936
0.987305
0.961825
0.934822
0.922036
0.926733
0.930263
0.924333
0.908374
0.919801
0.935299
0.943586
0.950833
0.951734
0.950653
0.949948
0.947665
0.946889
0.955187
0.956162
0.948282
0.974709
0.972259
0.955439
0.94791
0.942869
0.942788
0.943044
0.933896
0.925639
0.920903
0.918616
0.918293
0.926252
0.920047
0.928515
0.964605
1.00273
1.02274
1.00426
1.02725
1.02792
1.03164
1.03806
1.05112
1.07062
1.08437
1.09515
1.09736
1.09863
1.11107
1.12563
1.13805
1.14436
1.15646
1.16683
1.17544
1.18369
1.19522
1.20629
1.21376
1.22093
1.22829
1.23575
1.24279
1.24884
1.25417
1.2585
1.26308
1.27091
1.27403
1.27623
1.27789
1.28153
1.36531
1.35942
1.35848
1.34995
1.34509
1.33398
1.32383
1.31162
1.30046
1.2861
1.27398
1.25758
1.24264
1.22626
1.20988
1.19312
1.17646
1.15969
1.14289
1.12585
1.10833
1.09014
1.07135
1.05193
1.03189
1.01119
0.989262
0.962437
0.935863
0.935043
0.941552
0.948006
0.947667
0.938445
0.945172
0.96678
0.97833
0.989129
0.981894
0.980975
0.983254
0.987414
1.00555
1.02256
1.03212
1.04258
1.05067
1.062
1.06893
1.07669
1.08313
1.0932
1.10048
1.0778
1.07174
1.07239
1.07595
1.06768
1.09015
1.10241
1.11654
1.13189
1.15617
1.15325
1.17493
1.18346
1.17637
1.1808
1.1873
1.19937
1.21429
1.22864
1.23894
1.24871
1.2576
1.26892
1.27956
1.28904
1.29321
1.29967
1.30752
1.3164
1.3252
1.33527
1.34526
1.35232
1.35769
1.36239
1.36669
1.37002
1.37216
1.37359
1.37336
1.37449
1.37785
1.37667
1.37407
1.37074
1.36978
1.45059
1.44057
1.43472
1.42168
1.41207
1.3966
1.38277
1.3662
1.35158
1.33295
1.31747
1.29783
1.27954
1.26016
1.24088
1.22141
1.20222
1.18325
1.16455
1.14595
1.1272
1.10813
1.08878
1.06915
1.04926
1.0291
1.0073
0.977655
0.952862
0.960114
0.968141
0.980792
0.988206
0.98259
0.984826
0.995241
1.00244
1.01804
1.02444
1.03128
1.03905
1.04925
1.06111
1.07893
1.09378
1.10537
1.10177
1.11541
1.14518
1.16707
1.18365
1.20196
1.21074
1.21274
1.21957
1.22467
1.23241
1.22388
1.23202
1.24305
1.25634
1.27286
1.2921
1.3052
1.31855
1.32849
1.33523
1.3438
1.35278
1.36307
1.37542
1.38991
1.40187
1.4126
1.42367
1.4359
1.44755
1.45758
1.46349
1.46805
1.47346
1.48052
1.48768
1.49492
1.50187
1.50639
1.50861
1.50933
1.50908
1.50754
1.50464
1.50085
1.49545
1.49234
1.48974
1.48346
1.47556
1.4667
1.46048
1.53786
1.52372
1.51326
1.49624
1.48291
1.46352
1.44623
1.42617
1.40862
1.38679
1.36872
1.34687
1.32649
1.30524
1.28426
1.26328
1.24277
1.22266
1.2031
1.18393
1.16487
1.14576
1.1267
1.10763
1.08864
1.06974
1.05057
1.02903
1.00976
1.00533
1.01097
1.03094
1.04262
1.04639
1.05167
1.06263
1.06092
1.06987
1.07894
1.08854
1.09902
1.11166
1.12728
1.14735
1.16644
1.18088
1.19311
1.21139
1.23533
1.25864
1.27998
1.30076
1.31911
1.33132
1.34335
1.35478
1.3687
1.37285
1.38395
1.39571
1.41013
1.42411
1.44263
1.45596
1.47244
1.48708
1.49979
1.51324
1.52716
1.54139
1.55645
1.57353
1.58966
1.60418
1.61755
1.6299
1.64044
1.64922
1.65496
1.65784
1.66016
1.66356
1.66693
1.66966
1.67169
1.67157
1.66895
1.66436
1.65833
1.65087
1.64202
1.63219
1.62153
1.61324
1.60404
1.59235
1.57892
1.56451
1.55293
1.62697
1.60904
1.59491
1.57454
1.55798
1.53559
1.51558
1.49313
1.4736
1.44988
1.43041
1.40772
1.38676
1.3652
1.3441
1.32319
1.30292
1.2832
1.26415
1.24564
1.22744
1.20937
1.19153
1.17389
1.15659
1.13972
1.12332
1.10622
1.09124
1.08624
1.08852
1.09771
1.10735
1.11431
1.12151
1.13147
1.13861
1.14941
1.16133
1.17412
1.18754
1.20264
1.21988
1.24038
1.26255
1.28179
1.29805
1.31748
1.34267
1.36829
1.39329
1.41713
1.44033
1.4589
1.47777
1.49357
1.51342
1.52579
1.54127
1.55697
1.57583
1.59371
1.61558
1.63518
1.65694
1.67831
1.69855
1.71829
1.73768
1.7565
1.77499
1.79412
1.81261
1.82923
1.84347
1.85455
1.86207
1.867
1.86916
1.86807
1.86555
1.86317
1.86029
1.85631
1.85135
1.8445
1.83527
1.82397
1.81107
1.79673
1.78128
1.765
1.74898
1.73481
1.71904
1.7019
1.68304
1.66336
1.64679
1.71812
1.69679
1.67967
1.6568
1.63786
1.61359
1.59189
1.5683
1.548
1.52389
1.50457
1.4828
1.46313
1.44318
1.42392
1.40502
1.38686
1.36931
1.35246
1.33619
1.32023
1.30443
1.28884
1.27359
1.25883
1.24469
1.23144
1.21866
1.20738
1.20107
1.20023
1.20528
1.21301
1.22109
1.22953
1.2398
1.24818
1.25848
1.27126
1.28578
1.30127
1.31838
1.33709
1.35793
1.38088
1.40332
1.42448
1.44631
1.4721
1.49931
1.52751
1.55531
1.58415
1.61034
1.63753
1.66143
1.68858
1.71194
1.73606
1.75948
1.78538
1.81066
1.83877
1.86627
1.89486
1.92298
1.95028
1.97632
2.00066
2.02295
2.04336
2.0624
2.07988
2.09473
2.10628
2.11314
2.11489
2.11294
2.10791
2.09957
2.08942
2.07872
2.0671
2.0541
2.04004
2.02438
2.00673
1.98725
1.96633
1.94422
1.92142
1.89836
1.87669
1.85616
1.83404
1.81155
1.78746
1.76297
1.74192
1.81156
1.78739
1.76811
1.74361
1.7232
1.69814
1.67582
1.65238
1.63259
1.60971
1.59234
1.57347
1.55713
1.54088
1.52553
1.51067
1.49657
1.48302
1.47008
1.45762
1.44535
1.43314
1.42102
1.40916
1.39776
1.38694
1.37701
1.3679
1.35985
1.35401
1.35143
1.35293
1.35779
1.36476
1.37298
1.38281
1.39224
1.40291
1.4159
1.43105
1.44775
1.46626
1.48656
1.50848
1.53284
1.55842
1.58459
1.6111
1.64017
1.67088
1.70375
1.73741
1.77352
1.80907
1.84661
1.88217
1.91984
1.95619
1.99277
2.02812
2.06426
2.09966
2.13562
2.17108
2.20542
2.23845
2.26971
2.29894
2.32512
2.34777
2.36692
2.38279
2.39559
2.40493
2.40998
2.4095
2.40285
2.39152
2.37655
2.35805
2.33743
2.31573
2.29274
2.26823
2.24269
2.21587
2.18754
2.15787
2.12723
2.09592
2.0645
2.03399
2.00586
1.97837
1.94991
1.92195
1.89276
1.86379
1.8388
1.90862
1.88201
1.86126
1.83582
1.81485
1.78994
1.768
1.74581
1.72783
1.70783
1.69425
1.68028
1.66924
1.65864
1.64902
1.63983
1.63126
1.62307
1.61525
1.60766
1.60004
1.59224
1.58435
1.57652
1.56894
1.56173
1.55509
1.54917
1.54397
1.53976
1.53726
1.5373
1.54018
1.54562
1.55298
1.56203
1.57197
1.58367
1.59757
1.61382
1.63227
1.65298
1.67618
1.70141
1.7297
1.7607
1.79404
1.82883
1.86619
1.90556
1.9479
1.99218
2.0397
2.08813
2.13886
2.18878
2.23939
2.28906
2.33815
2.38526
2.43098
2.47488
2.51656
2.5566
2.59347
2.62708
2.65794
2.68589
2.70992
2.72949
2.74457
2.75512
2.76116
2.76305
2.7599
2.75062
2.73447
2.7128
2.68678
2.65663
2.62369
2.58884
2.55211
2.51345
2.47356
2.43247
2.39017
2.34703
2.30354
2.26018
2.2176
2.17772
2.14124
2.10546
2.06986
2.03572
2.00102
1.96751
1.9388
2.01222
1.98322
1.96145
1.93557
1.91476
1.89072
1.86999
1.85
1.83521
1.8199
1.81228
1.80538
1.80162
1.79841
1.79599
1.79374
1.79173
1.78975
1.78777
1.78566
1.7832
1.78028
1.777
1.77352
1.77002
1.7666
1.76344
1.76075
1.75863
1.75711
1.75661
1.75779
1.76122
1.76712
1.77529
1.78544
1.79761
1.81246
1.82998
1.85041
1.87403
1.9008
1.93124
1.96495
2.00278
2.04483
2.09084
2.13977
2.19176
2.24592
2.30279
2.36136
2.4222
2.48348
2.54549
2.60617
2.66546
2.72256
2.7775
2.82943
2.87824
2.92398
2.966
3.00461
3.03964
3.07011
3.09674
3.11994
3.13902
3.15336
3.16288
3.16746
3.16694
3.16162
3.15105
3.13406
3.10989
3.07961
3.04425
3.00395
2.95978
2.91244
2.86198
2.8085
2.75281
2.69512
2.63567
2.57515
2.51434
2.45425
2.3959
2.34236
2.29367
2.24647
2.20118
2.15878
2.11706
2.07805
2.04528
2.12852
2.09634
2.07345
2.04739
2.02709
2.00427
1.98536
1.96829
1.95847
1.95038
1.95167
1.95465
1.9606
1.96674
1.97311
1.97902
1.98461
1.98968
1.99427
1.99832
2.00168
2.00431
2.00634
2.00798
2.00943
2.01081
2.01231
2.01427
2.01695
2.02038
2.02491
2.03116
2.0398
2.05132
2.06588
2.0833
2.10433
2.12947
2.15848
2.19148
2.22872
2.27
2.31558
2.36493
2.41827
2.47553
2.53625
2.59925
2.6639
2.72905
2.79466
2.85992
2.92492
2.98857
3.05079
3.11053
3.16743
3.22116
3.27176
3.31889
3.36235
3.40227
3.43822
3.47022
3.49824
3.52248
3.54239
3.55826
3.57057
3.57851
3.58195
3.5807
3.57487
3.56441
3.54908
3.5277
3.49951
3.46521
3.42555
3.38046
3.33061
3.27634
3.21753
3.15409
3.08664
3.01528
2.94023
2.86225
2.78235
2.70208
2.62339
2.5502
2.48352
2.41928
2.35901
2.30365
2.25108
2.20375
2.16526
2.27165
2.23376
2.20888
2.18241
2.16229
2.14057
2.12366
2.11001
2.10826
2.11181
2.12719
2.14468
2.16445
2.18353
2.20199
2.21931
2.23585
2.2516
2.26672
2.28124
2.29508
2.30823
2.32089
2.33331
2.34572
2.35825
2.37112
2.38482
2.39975
2.41596
2.43377
2.45369
2.47631
2.50211
2.53126
2.56333
2.59948
2.6396
2.68322
2.73008
2.77999
2.83245
2.88729
2.9439
3.00212
3.06177
3.1225
3.18349
3.24408
3.30345
3.36149
3.41778
3.47233
3.52472
3.57484
3.62224
3.66666
3.70798
3.7462
3.78123
3.81294
3.84142
3.86648
3.88812
3.90627
3.92129
3.9332
3.94148
3.9466
3.94851
3.94686
3.94142
3.93238
3.91972
3.90306
3.88137
3.85387
3.82095
3.78301
3.73985
3.69177
3.63879
3.58049
3.51648
3.44691
3.37148
3.29
3.20285
3.11063
3.01482
2.91814
2.82384
2.73621
2.65043
2.56906
2.49395
2.42382
2.36249
2.31444
2.47113
2.42381
2.39648
2.36962
2.35063
2.33131
2.31818
2.31107
2.32867
2.35916
2.40681
2.45725
2.50891
2.55788
2.60402
2.64679
2.68691
2.72455
2.76008
2.79369
2.82538
2.8552
2.88349
2.91057
2.93674
2.96209
2.98691
3.01177
3.03716
3.06307
3.08972
3.11742
3.14648
3.17711
3.20949
3.24338
3.2796
3.31785
3.35795
3.39964
3.44264
3.48655
3.53111
3.57594
3.62087
3.66581
3.71058
3.75474
3.79785
3.83945
3.87943
3.91763
3.95407
3.98861
4.02117
4.05157
4.07966
4.10539
4.12879
4.14983
4.16847
4.18479
4.1987
4.21022
4.21934
4.22621
4.23101
4.23371
4.2339
4.23172
4.22718
4.21999
4.21019
4.19787
4.18257
4.16345
4.13979
4.11171
4.0794
4.04261
4.00144
3.95573
3.90492
3.84838
3.78589
3.71676
3.64038
3.55652
3.46512
3.36691
3.26447
3.15879
3.05707
2.95468
2.85376
2.75715
2.66529
2.58468
2.52276
2.75842
2.70239
2.67545
2.65182
2.63924
2.62783
2.62534
2.63322
2.70439
2.8005
2.91298
3.01688
3.10859
3.1858
3.25125
3.30716
3.35641
3.40062
3.44104
3.47838
3.51296
3.545
3.57487
3.60288
3.62926
3.65412
3.6777
3.70049
3.72288
3.7449
3.76673
3.78857
3.81059
3.83289
3.85554
3.87889
3.90304
3.92792
3.95355
3.97986
4.00667
4.03375
4.06092
4.08795
4.11475
4.14128
4.16744
4.19301
4.21771
4.24129
4.26367
4.28482
4.30477
4.32348
4.34093
4.35701
4.37166
4.38484
4.39657
4.40684
4.41565
4.42302
4.42893
4.43339
4.4364
4.43802
4.43834
4.43756
4.43529
4.43133
4.42575
4.41853
4.40957
4.39892
4.38621
4.37079
4.35201
4.32983
4.30433
4.27526
4.24266
4.20633
4.16573
4.12018
4.06926
4.01216
3.94802
3.87627
3.79636
3.70829
3.61397
3.5128
3.41099
3.3064
3.19921
3.09187
2.98592
2.89037
2.81689
3.119
3.06218
3.04058
3.02376
3.02223
3.0214
3.03288
3.05774
3.24203
3.42535
3.5809
3.69275
3.77267
3.83026
3.87466
3.91122
3.94372
3.97387
4.00258
4.03011
4.05639
4.08126
4.10474
4.12683
4.14752
4.16679
4.18474
4.20163
4.2177
4.23299
4.24762
4.26175
4.27548
4.2889
4.30203
4.31534
4.32873
4.34218
4.35579
4.36961
4.38355
4.39752
4.41142
4.42514
4.43864
4.45192
4.46492
4.47754
4.48959
4.50095
4.51156
4.52142
4.53056
4.53899
4.54668
4.5536
4.55968
4.56492
4.56931
4.57286
4.57557
4.57746
4.57852
4.57877
4.57821
4.57688
4.57487
4.57227
4.56893
4.56461
4.55921
4.55275
4.54525
4.53667
4.52677
4.51504
4.50093
4.48432
4.46517
4.44331
4.41877
4.39139
4.36072
4.32613
4.28719
4.24309
4.19299
4.1362
4.07201
4
3.92154
3.83592
3.74556
3.65199
3.55368
3.45173
3.3477
3.25125
3.17659
3.48889
3.43867
3.424
3.41249
3.41917
3.42413
3.44341
3.47771
3.87444
4.08662
4.19483
4.24367
4.26669
4.27938
4.28991
4.30139
4.3152
4.33123
4.349
4.36783
4.38699
4.40589
4.42415
4.44152
4.4578
4.47287
4.48671
4.49943
4.51116
4.52193
4.53184
4.54102
4.54955
4.55751
4.56494
4.57218
4.57925
4.58606
4.59274
4.59936
4.60591
4.61237
4.61867
4.6248
4.63072
4.63647
4.642
4.64727
4.65216
4.65659
4.66053
4.66398
4.66696
4.6695
4.67158
4.67319
4.67429
4.67489
4.67498
4.67459
4.67373
4.67242
4.67069
4.66854
4.66601
4.66313
4.65998
4.6566
4.65301
4.64889
4.64424
4.63894
4.63303
4.62651
4.61921
4.61076
4.6007
4.58884
4.57511
4.55936
4.54162
4.5218
4.49957
4.47441
4.4459
4.41335
4.37599
4.3332
4.28427
4.22867
4.16731
4.10011
4.02631
3.94943
3.86783
3.78133
3.69109
3.60574
3.53929
3.8111
3.7696
3.75951
3.75001
3.75842
3.76317
3.78239
3.81967
4.62393
4.64954
4.61639
4.57579
4.5436
4.5225
4.51189
4.50981
4.51448
4.52405
4.53697
4.55191
4.56782
4.58388
4.59957
4.61453
4.62851
4.64134
4.65296
4.66344
4.67283
4.68117
4.68856
4.6951
4.70087
4.70596
4.71043
4.71451
4.71829
4.72166
4.72476
4.72766
4.73037
4.73289
4.73522
4.73734
4.73926
4.74098
4.7425
4.74379
4.74479
4.74543
4.74569
4.74557
4.74508
4.74426
4.7431
4.7416
4.73976
4.73759
4.7351
4.73233
4.72931
4.72608
4.72267
4.71913
4.71549
4.71179
4.70813
4.70458
4.70109
4.69752
4.69376
4.68976
4.68546
4.68088
4.67593
4.67033
4.66371
4.65586
4.64665
4.63596
4.62381
4.61018
4.59483
4.57734
4.55734
4.53425
4.50742