/*--------------------------------*- C++ -*----------------------------------*\
| =========                 |                                                 |
| \\      /  F ield         | OpenFOAM: The Open Source CFD Toolbox           |
|  \\    /   O peration     | Version:  5.0                                   |
|   \\  /    A nd           | Web:      www.OpenFOAM.org                      |
|    \\/     M anipulation  |                                                 |
\*---------------------------------------------------------------------------*/
FoamFile
{
    version     2.0;
    format      ascii;
    class       volScalarField;
    location    "20000";
    object      k;
}
// * * * * * * * * * * * * * * * * * * * * * * * * * * * * * * * * * * * * * //

dimensions      [0 2 -2 0 0 0 0];

internalField   nonuniform List<scalar> 
14751
(
4.05507e-10
3.95151e-10
3.69292e-10
3.34469e-10
2.95653e-10
2.60502e-10
2.34937e-10
2.23596e-10
2.07759e-10
1.88933e-10
1.72583e-10
1.59293e-10
1.48228e-10
1.45021e-10
1.45102e-10
1.46512e-10
1.44187e-10
1.40217e-10
1.37061e-10
1.30477e-10
1.24954e-10
1.21811e-10
1.21522e-10
1.23466e-10
1.2712e-10
1.31958e-10
1.37825e-10
1.44404e-10
1.51434e-10
1.58747e-10
1.66346e-10
1.74371e-10
1.82989e-10
1.92301e-10
2.02342e-10
2.12366e-10
2.22878e-10
2.34125e-10
2.44969e-10
2.51022e-10
2.52812e-10
2.50857e-10
2.47e-10
2.46015e-10
2.51341e-10
2.56485e-10
2.55009e-10
2.52322e-10
2.44664e-10
2.4379e-10
2.54242e-10
2.69296e-10
2.8553e-10
2.96928e-10
2.9821e-10
2.95992e-10
2.93556e-10
2.89724e-10
2.81683e-10
2.69345e-10
2.59522e-10
2.51349e-10
2.43214e-10
2.35521e-10
2.26951e-10
2.20492e-10
2.18245e-10
2.07576e-10
1.95266e-10
1.85361e-10
1.79427e-10
1.78256e-10
1.79738e-10
1.7957e-10
1.72389e-10
1.76524e-10
2.13273e-10
2.75929e-10
3.30739e-10
3.66466e-10
4.09833e-10
4.4209e-10
4.80054e-10
5.1879e-10
5.51264e-10
5.78717e-10
6.02217e-10
6.08799e-10
6.22952e-10
6.38645e-10
6.51515e-10
6.68563e-10
6.54393e-10
6.25768e-10
5.9495e-10
5.66512e-10
5.27989e-10
4.95439e-10
4.4974e-10
1.31725e-08
1.28394e-08
1.20111e-08
1.08948e-08
9.64931e-09
8.52e-09
7.70042e-09
7.34541e-09
6.8411e-09
6.23588e-09
5.70986e-09
5.28289e-09
4.9275e-09
4.83219e-09
4.84605e-09
4.90441e-09
4.83741e-09
4.71442e-09
4.6182e-09
4.40542e-09
4.22728e-09
4.12874e-09
4.1263e-09
4.19945e-09
4.33067e-09
4.50225e-09
4.709e-09
4.94023e-09
5.18705e-09
5.44371e-09
5.7102e-09
5.9914e-09
6.29302e-09
6.61853e-09
6.96913e-09
7.31908e-09
7.68566e-09
8.07743e-09
8.45535e-09
8.66765e-09
8.73242e-09
8.66761e-09
8.53661e-09
8.50425e-09
8.68986e-09
8.8692e-09
8.81947e-09
8.72796e-09
8.46401e-09
8.43392e-09
8.79509e-09
9.31509e-09
9.87552e-09
1.02685e-08
1.03113e-08
1.02326e-08
1.01461e-08
1.0011e-08
9.73042e-09
9.30133e-09
8.95893e-09
8.67333e-09
8.38892e-09
8.11952e-09
7.81952e-09
7.59184e-09
7.50904e-09
7.13639e-09
6.70724e-09
6.36064e-09
6.15026e-09
6.10291e-09
6.14591e-09
6.132e-09
5.87798e-09
6.00874e-09
7.24692e-09
9.35987e-09
1.11988e-08
1.23841e-08
1.38218e-08
1.48779e-08
1.61199e-08
1.73814e-08
1.84266e-08
1.92986e-08
2.00343e-08
2.02037e-08
2.06224e-08
2.10899e-08
2.1462e-08
2.19711e-08
2.14554e-08
2.0471e-08
1.94224e-08
1.84607e-08
1.71791e-08
1.61038e-08
1.46131e-08
9.82915e-08
9.58838e-08
8.99736e-08
8.19856e-08
7.30218e-08
6.48535e-08
5.89403e-08
5.65888e-08
5.30502e-08
4.86618e-08
4.48375e-08
4.17482e-08
3.9157e-08
3.86257e-08
3.89663e-08
3.96884e-08
3.93832e-08
3.85976e-08
3.80362e-08
3.64792e-08
3.51803e-08
3.45226e-08
3.46583e-08
3.54259e-08
3.66839e-08
3.82862e-08
4.01912e-08
4.23101e-08
4.45671e-08
4.69122e-08
4.93443e-08
5.19046e-08
5.46426e-08
5.75884e-08
6.07543e-08
6.39111e-08
6.72065e-08
7.07193e-08
7.41218e-08
7.60674e-08
7.67126e-08
7.62128e-08
7.51094e-08
7.48466e-08
7.65109e-08
7.81375e-08
7.7734e-08
7.69816e-08
7.467e-08
7.43856e-08
7.75486e-08
8.21043e-08
8.70181e-08
9.04634e-08
9.08049e-08
9.00619e-08
8.92416e-08
8.79974e-08
8.54786e-08
8.16401e-08
7.8562e-08
7.59797e-08
7.34041e-08
7.09591e-08
6.82323e-08
6.6119e-08
6.52904e-08
6.19308e-08
5.80794e-08
5.49265e-08
5.29472e-08
5.23706e-08
5.257e-08
5.22884e-08
4.99058e-08
5.07083e-08
6.08199e-08
7.82503e-08
9.32446e-08
1.02553e-07
1.13872e-07
1.2185e-07
1.31238e-07
1.40666e-07
1.48209e-07
1.54242e-07
1.59142e-07
1.59401e-07
1.61616e-07
1.64182e-07
1.65942e-07
1.6883e-07
1.6388e-07
1.55431e-07
1.46649e-07
1.38748e-07
1.28594e-07
1.20287e-07
1.09094e-07
3.826e-07
3.72096e-07
3.50198e-07
3.20998e-07
2.8795e-07
2.57506e-07
2.35198e-07
2.27581e-07
2.14831e-07
1.98306e-07
1.83856e-07
1.72183e-07
1.62037e-07
1.60531e-07
1.62746e-07
1.66901e-07
1.66651e-07
1.64184e-07
1.62919e-07
1.57058e-07
1.52112e-07
1.49794e-07
1.50875e-07
1.54703e-07
1.60682e-07
1.68185e-07
1.77043e-07
1.86875e-07
1.97347e-07
2.08225e-07
2.19493e-07
2.31324e-07
2.43935e-07
2.57455e-07
2.71944e-07
2.8637e-07
3.01344e-07
3.17259e-07
3.32859e-07
3.41924e-07
3.4521e-07
3.43345e-07
3.38533e-07
3.37211e-07
3.44763e-07
3.52448e-07
3.50864e-07
3.48038e-07
3.37565e-07
3.35814e-07
3.49706e-07
3.69846e-07
3.91807e-07
4.07422e-07
4.08892e-07
4.05391e-07
4.01574e-07
3.95985e-07
3.84782e-07
3.67403e-07
3.53458e-07
3.41737e-07
3.30007e-07
3.18908e-07
3.06357e-07
2.96313e-07
2.92502e-07
2.77291e-07
2.59789e-07
2.45131e-07
2.35549e-07
2.32213e-07
2.32459e-07
2.30781e-07
2.18988e-07
2.19871e-07
2.61472e-07
3.35895e-07
3.99564e-07
4.36333e-07
4.81406e-07
5.10977e-07
5.46367e-07
5.81909e-07
6.09152e-07
6.2977e-07
6.46073e-07
6.42292e-07
6.46494e-07
6.52089e-07
6.54043e-07
6.6001e-07
6.3791e-07
6.02446e-07
5.66014e-07
5.33933e-07
4.94259e-07
4.62796e-07
4.20848e-07
1.00352e-06
9.74806e-07
9.21063e-07
8.51913e-07
7.74048e-07
7.01209e-07
6.46161e-07
6.31533e-07
6.01445e-07
5.60567e-07
5.24718e-07
4.94846e-07
4.672e-07
4.64339e-07
4.727e-07
4.8818e-07
4.90927e-07
4.86896e-07
4.87807e-07
4.73627e-07
4.61106e-07
4.55366e-07
4.59273e-07
4.71134e-07
4.89245e-07
5.11817e-07
5.38421e-07
5.67935e-07
5.99381e-07
6.32016e-07
6.65711e-07
7.00875e-07
7.3809e-07
7.77624e-07
8.19445e-07
8.61071e-07
9.03906e-07
9.48958e-07
9.93122e-07
1.0187e-06
1.02871e-06
1.02453e-06
1.01156e-06
1.008e-06
1.03041e-06
1.05362e-06
1.05042e-06
1.04488e-06
1.01399e-06
1.00671e-06
1.04514e-06
1.10127e-06
1.16361e-06
1.20913e-06
1.21416e-06
1.20542e-06
1.19631e-06
1.18267e-06
1.15346e-06
1.10531e-06
1.06697e-06
1.03475e-06
1.00223e-06
9.71481e-07
9.35049e-07
9.0422e-07
8.93621e-07
8.51113e-07
8.00672e-07
7.5621e-07
7.24917e-07
7.11649e-07
7.09267e-07
7.01006e-07
6.58315e-07
6.45496e-07
7.56823e-07
9.70944e-07
1.15138e-06
1.23758e-06
1.34143e-06
1.40008e-06
1.47755e-06
1.55733e-06
1.61504e-06
1.65612e-06
1.68754e-06
1.66576e-06
1.66326e-06
1.6634e-06
1.65186e-06
1.64506e-06
1.5918e-06
1.50785e-06
1.41989e-06
1.34074e-06
1.24985e-06
1.17912e-06
1.0841e-06
1.90282e-06
1.84653e-06
1.75569e-06
1.64634e-06
1.52509e-06
1.4102e-06
1.32039e-06
1.3021e-06
1.25323e-06
1.1859e-06
1.12658e-06
1.07373e-06
1.02353e-06
1.02144e-06
1.04229e-06
1.07873e-06
1.08959e-06
1.08871e-06
1.10077e-06
1.08046e-06
1.06215e-06
1.05453e-06
1.06463e-06
1.08969e-06
1.12648e-06
1.17176e-06
1.22481e-06
1.28324e-06
1.34517e-06
1.40908e-06
1.47448e-06
1.54183e-06
1.61194e-06
1.68487e-06
1.76e-06
1.8345e-06
1.91024e-06
1.98795e-06
2.06084e-06
2.10172e-06
2.11925e-06
2.11525e-06
2.09931e-06
2.10244e-06
2.14788e-06
2.18891e-06
2.18691e-06
2.18084e-06
2.12887e-06
2.11948e-06
2.19046e-06
2.29086e-06
2.39737e-06
2.47474e-06
2.48662e-06
2.47886e-06
2.4708e-06
2.45433e-06
2.41149e-06
2.33614e-06
2.2756e-06
2.224e-06
2.17204e-06
2.12118e-06
2.05576e-06
1.99698e-06
1.97396e-06
1.90382e-06
1.81561e-06
1.72984e-06
1.66127e-06
1.62352e-06
1.60379e-06
1.56772e-06
1.4584e-06
1.38949e-06
1.59268e-06
2.02226e-06
2.36051e-06
2.47736e-06
2.61435e-06
2.67578e-06
2.77946e-06
2.88366e-06
2.95422e-06
3.00286e-06
3.03376e-06
2.99212e-06
2.97194e-06
2.94967e-06
2.90375e-06
2.86669e-06
2.78186e-06
2.65982e-06
2.52902e-06
2.4029e-06
2.26528e-06
2.15417e-06
2.01478e-06
2.79026e-06
2.69268e-06
2.57333e-06
2.44251e-06
2.30807e-06
2.18764e-06
2.09666e-06
2.06639e-06
2.005e-06
1.9307e-06
1.86443e-06
1.80377e-06
1.7502e-06
1.75333e-06
1.78461e-06
1.83384e-06
1.85084e-06
1.85695e-06
1.8825e-06
1.8664e-06
1.85552e-06
1.85631e-06
1.87807e-06
1.9175e-06
1.97071e-06
2.03407e-06
2.10684e-06
2.18574e-06
2.26847e-06
2.35314e-06
2.43892e-06
2.52599e-06
2.61503e-06
2.70562e-06
2.79676e-06
2.8866e-06
2.97657e-06
3.06614e-06
3.14631e-06
3.19114e-06
3.21361e-06
3.21636e-06
3.21174e-06
3.23231e-06
3.293e-06
3.34074e-06
3.34326e-06
3.34073e-06
3.29442e-06
3.3026e-06
3.3995e-06
3.52519e-06
3.64691e-06
3.73156e-06
3.75306e-06
3.7569e-06
3.75788e-06
3.74636e-06
3.70596e-06
3.636e-06
3.57824e-06
3.52637e-06
3.47403e-06
3.41819e-06
3.34215e-06
3.2739e-06
3.23554e-06
3.15908e-06
3.06284e-06
2.96258e-06
2.87361e-06
2.81349e-06
2.76518e-06
2.68909e-06
2.52972e-06
2.41233e-06
2.6763e-06
3.25014e-06
3.65346e-06
3.75807e-06
3.87797e-06
3.92067e-06
4.01912e-06
4.10619e-06
4.16228e-06
4.19641e-06
4.20447e-06
4.15572e-06
4.11754e-06
4.06816e-06
3.99511e-06
3.92196e-06
3.80939e-06
3.66649e-06
3.51337e-06
3.36083e-06
3.2032e-06
3.05889e-06
2.90776e-06
3.47768e-06
3.35465e-06
3.22083e-06
3.08324e-06
2.95122e-06
2.83924e-06
2.75678e-06
2.71147e-06
2.64669e-06
2.57931e-06
2.52552e-06
2.48209e-06
2.45608e-06
2.46577e-06
2.49645e-06
2.53472e-06
2.55242e-06
2.56449e-06
2.5957e-06
2.58977e-06
2.59477e-06
2.6115e-06
2.64732e-06
2.69893e-06
2.76291e-06
2.83611e-06
2.91792e-06
3.00508e-06
3.0955e-06
3.18742e-06
3.27996e-06
3.37301e-06
3.46692e-06
3.56096e-06
3.65409e-06
3.74523e-06
3.83488e-06
3.92136e-06
3.99639e-06
4.04082e-06
4.06789e-06
4.08155e-06
4.09381e-06
4.13054e-06
4.19548e-06
4.24411e-06
4.25495e-06
4.26058e-06
4.23712e-06
4.26999e-06
4.38042e-06
4.51011e-06
4.62663e-06
4.70491e-06
4.73542e-06
4.75209e-06
4.76187e-06
4.75579e-06
4.72438e-06
4.67409e-06
4.63202e-06
4.59048e-06
4.54561e-06
4.49284e-06
4.42299e-06
4.36229e-06
4.30978e-06
4.23461e-06
4.14838e-06
4.0605e-06
3.98218e-06
3.92115e-06
3.86395e-06
3.7941e-06
3.69026e-06
3.67933e-06
3.95434e-06
4.40343e-06
4.68116e-06
4.77503e-06
4.85309e-06
4.88496e-06
4.95991e-06
5.02051e-06
5.05662e-06
5.07071e-06
5.05713e-06
5.00457e-06
4.95224e-06
4.88451e-06
4.79605e-06
4.69779e-06
4.56673e-06
4.4126e-06
4.24859e-06
4.08338e-06
3.91606e-06
3.75748e-06
3.60298e-06
3.93238e-06
3.7985e-06
3.66278e-06
3.53097e-06
3.41171e-06
3.31466e-06
3.24226e-06
3.19093e-06
3.13212e-06
3.07826e-06
3.03839e-06
3.0113e-06
3.00271e-06
3.01902e-06
3.0474e-06
3.07841e-06
3.1001e-06
3.12021e-06
3.1497e-06
3.15865e-06
3.17946e-06
3.21237e-06
3.26107e-06
3.32258e-06
3.39422e-06
3.47356e-06
3.55966e-06
3.64991e-06
3.74258e-06
3.83628e-06
3.93016e-06
4.02393e-06
4.11753e-06
4.2101e-06
4.30065e-06
4.38844e-06
4.47303e-06
4.55195e-06
4.61838e-06
4.66261e-06
4.69464e-06
4.71998e-06
4.74895e-06
4.79921e-06
4.86265e-06
4.9104e-06
4.9358e-06
4.95243e-06
4.95657e-06
5.01183e-06
5.12618e-06
5.2488e-06
5.35244e-06
5.4202e-06
5.4567e-06
5.48355e-06
5.50046e-06
5.50041e-06
5.47885e-06
5.44418e-06
5.41436e-06
5.38187e-06
5.3437e-06
5.29567e-06
5.2335e-06
5.17797e-06
5.1228e-06
5.05271e-06
4.97642e-06
4.90069e-06
4.83414e-06
4.78072e-06
4.7338e-06
4.68961e-06
4.65673e-06
4.7239e-06
4.96383e-06
5.26423e-06
5.43454e-06
5.50237e-06
5.55134e-06
5.57484e-06
5.62177e-06
5.65268e-06
5.66263e-06
5.65153e-06
5.6156e-06
5.55366e-06
5.48514e-06
5.40017e-06
5.29698e-06
5.17897e-06
5.03543e-06
4.87581e-06
4.7092e-06
4.54153e-06
4.3742e-06
4.21392e-06
4.06231e-06
4.19119e-06
4.0593e-06
3.93197e-06
3.81435e-06
3.71272e-06
3.63222e-06
3.57092e-06
3.52321e-06
3.47634e-06
3.43813e-06
3.41308e-06
3.40102e-06
3.40416e-06
3.42374e-06
3.45248e-06
3.48271e-06
3.50989e-06
3.537e-06
3.56891e-06
3.59347e-06
3.62916e-06
3.676e-06
3.73532e-06
3.80466e-06
3.88202e-06
3.96553e-06
4.05406e-06
4.14563e-06
4.23884e-06
4.33259e-06
4.42608e-06
4.51888e-06
4.61062e-06
4.70041e-06
4.78736e-06
4.87077e-06
4.94965e-06
5.02147e-06
5.08152e-06
5.12646e-06
5.16422e-06
5.20055e-06
5.24323e-06
5.30056e-06
5.36262e-06
5.41165e-06
5.4472e-06
5.47714e-06
5.50764e-06
5.57982e-06
5.68963e-06
5.79979e-06
5.88904e-06
5.94907e-06
5.98771e-06
6.01794e-06
6.03649e-06
6.03868e-06
6.02414e-06
6.00063e-06
5.97769e-06
5.94972e-06
5.91443e-06
5.86947e-06
5.8151e-06
5.76303e-06
5.70747e-06
5.64234e-06
5.57486e-06
5.51067e-06
5.45557e-06
5.41181e-06
5.37835e-06
5.36028e-06
5.37759e-06
5.4732e-06
5.66138e-06
5.84802e-06
5.94837e-06
5.98762e-06
6.01075e-06
6.01978e-06
6.03641e-06
6.03684e-06
6.01877e-06
5.98167e-06
5.92408e-06
5.8481e-06
5.76231e-06
5.66102e-06
5.54371e-06
5.41178e-06
5.26232e-06
5.10297e-06
4.94e-06
4.7775e-06
4.61761e-06
4.46414e-06
4.32003e-06
4.31479e-06
4.19459e-06
4.08288e-06
3.98419e-06
3.90203e-06
3.83852e-06
3.79017e-06
3.7525e-06
3.72032e-06
3.69798e-06
3.68735e-06
3.68852e-06
3.70154e-06
3.72646e-06
3.75804e-06
3.79117e-06
3.82421e-06
3.85888e-06
3.89717e-06
3.93517e-06
3.98317e-06
4.04081e-06
4.10821e-06
4.18339e-06
4.26482e-06
4.35097e-06
4.44077e-06
4.53265e-06
4.6255e-06
4.7184e-06
4.81062e-06
4.90161e-06
4.9908e-06
5.07737e-06
5.16046e-06
5.23938e-06
5.31301e-06
5.37938e-06
5.43592e-06
5.48253e-06
5.52588e-06
5.57095e-06
5.62263e-06
5.6835e-06
5.74454e-06
5.79564e-06
5.83865e-06
5.8805e-06
5.93038e-06
6.01081e-06
6.11265e-06
6.20866e-06
6.28379e-06
6.33727e-06
6.3743e-06
6.40255e-06
6.41838e-06
6.41967e-06
6.40816e-06
6.38963e-06
6.36825e-06
6.34039e-06
6.30478e-06
6.26086e-06
6.21051e-06
6.15933e-06
6.1042e-06
6.04425e-06
5.98513e-06
5.93121e-06
5.88641e-06
5.85288e-06
5.83305e-06
5.83468e-06
5.87338e-06
5.96703e-06
6.09951e-06
6.21082e-06
6.25963e-06
6.27073e-06
6.2691e-06
6.25796e-06
6.2448e-06
6.2164e-06
6.17189e-06
6.11108e-06
6.03409e-06
5.94323e-06
5.84207e-06
5.7279e-06
5.60111e-06
5.46304e-06
5.31448e-06
5.16115e-06
5.00742e-06
4.85598e-06
4.7088e-06
4.56803e-06
4.43576e-06
4.35924e-06
4.2568e-06
4.16471e-06
4.08676e-06
4.02425e-06
3.97761e-06
3.94352e-06
3.91889e-06
3.90172e-06
3.89414e-06
3.89666e-06
3.90977e-06
3.93276e-06
3.96355e-06
3.99917e-06
4.03685e-06
4.07612e-06
4.11804e-06
4.1637e-06
4.2125e-06
4.26998e-06
4.3355e-06
4.40863e-06
4.48775e-06
4.57166e-06
4.6591e-06
4.74909e-06
4.84037e-06
4.93205e-06
5.02333e-06
5.11352e-06
5.20202e-06
5.28817e-06
5.37119e-06
5.45032e-06
5.52486e-06
5.59386e-06
5.65611e-06
5.71072e-06
5.75925e-06
5.80723e-06
5.8584e-06
5.91529e-06
5.97716e-06
6.03707e-06
6.09e-06
6.1389e-06
6.1898e-06
6.25078e-06
6.33254e-06
6.42398e-06
6.50492e-06
6.56802e-06
6.61327e-06
6.64525e-06
6.66757e-06
6.67777e-06
6.67553e-06
6.66311e-06
6.64419e-06
6.62033e-06
6.58946e-06
6.5512e-06
6.50627e-06
6.45678e-06
6.40561e-06
6.35187e-06
6.29699e-06
6.24528e-06
6.20008e-06
6.16434e-06
6.14042e-06
6.13181e-06
6.14473e-06
6.18684e-06
6.2593e-06
6.34067e-06
6.39259e-06
6.40146e-06
6.38669e-06
6.36159e-06
6.32833e-06
6.28844e-06
6.23514e-06
6.16833e-06
6.08836e-06
5.99616e-06
5.89359e-06
5.7823e-06
5.66144e-06
5.53201e-06
5.39572e-06
5.25465e-06
5.11277e-06
4.97314e-06
4.83731e-06
4.70681e-06
4.58272e-06
4.46627e-06
4.36609e-06
4.28404e-06
4.21268e-06
4.15508e-06
4.11115e-06
4.08053e-06
4.06064e-06
4.04937e-06
4.04601e-06
4.05181e-06
4.0668e-06
4.09016e-06
4.12082e-06
4.15719e-06
4.19724e-06
4.23985e-06
4.28501e-06
4.33343e-06
4.38591e-06
4.4429e-06
4.50721e-06
4.57806e-06
4.65482e-06
4.73615e-06
4.82108e-06
4.90855e-06
4.99769e-06
5.08748e-06
5.17716e-06
5.26604e-06
5.35346e-06
5.43883e-06
5.52147e-06
5.60067e-06
5.67573e-06
5.74604e-06
5.81095e-06
5.87004e-06
5.92358e-06
5.97377e-06
6.02506e-06
6.07979e-06
6.13883e-06
6.19993e-06
6.25835e-06
6.31237e-06
6.36506e-06
6.42128e-06
6.48654e-06
6.56407e-06
6.64238e-06
6.70931e-06
6.75946e-06
6.79493e-06
6.81883e-06
6.83266e-06
6.83531e-06
6.82733e-06
6.81074e-06
6.7877e-06
6.75882e-06
6.72329e-06
6.68152e-06
6.63475e-06
6.58492e-06
6.53395e-06
6.48236e-06
6.43225e-06
6.38685e-06
6.34871e-06
6.32005e-06
6.3029e-06
6.29979e-06
6.31354e-06
6.34483e-06
6.38688e-06
6.42122e-06
6.42777e-06
6.40584e-06
6.36835e-06
6.32222e-06
6.26853e-06
6.20691e-06
6.13431e-06
6.05131e-06
5.9586e-06
5.85732e-06
5.7489e-06
5.63442e-06
5.51417e-06
5.38946e-06
5.26208e-06
5.13417e-06
5.00823e-06
4.88632e-06
4.76922e-06
4.65796e-06
4.553e-06
4.45522e-06
4.36167e-06
4.29981e-06
4.24813e-06
4.20896e-06
4.18148e-06
4.1652e-06
4.15836e-06
4.1601e-06
4.16944e-06
4.18653e-06
4.21099e-06
4.24213e-06
4.27893e-06
4.32019e-06
4.3646e-06
4.41178e-06
4.46202e-06
4.51583e-06
4.57384e-06
4.63659e-06
4.70537e-06
4.77941e-06
4.85797e-06
4.93998e-06
5.0246e-06
5.11094e-06
5.19822e-06
5.28561e-06
5.37246e-06
5.45816e-06
5.5421e-06
5.62371e-06
5.70237e-06
5.77746e-06
5.84836e-06
5.9146e-06
5.97585e-06
6.03234e-06
6.08509e-06
6.13629e-06
6.18934e-06
6.2454e-06
6.30422e-06
6.36324e-06
6.41961e-06
6.47342e-06
6.52728e-06
6.58462e-06
6.64811e-06
6.71653e-06
6.78096e-06
6.8325e-06
6.86913e-06
6.89345e-06
6.9072e-06
6.91109e-06
6.90497e-06
6.88972e-06
6.86693e-06
6.83796e-06
6.80325e-06
6.76284e-06
6.71764e-06
6.66907e-06
6.61888e-06
6.56863e-06
6.51947e-06
6.47339e-06
6.43272e-06
6.39922e-06
6.37426e-06
6.35888e-06
6.35376e-06
6.35846e-06
6.36967e-06
6.37916e-06
6.37474e-06
6.34824e-06
6.30297e-06
6.24697e-06
6.18386e-06
6.11414e-06
6.03738e-06
5.95271e-06
5.86087e-06
5.76273e-06
5.65944e-06
5.55214e-06
5.44176e-06
5.3291e-06
5.2155e-06
5.10251e-06
4.99177e-06
4.8847e-06
4.78254e-06
4.6856e-06
4.59458e-06
4.50964e-06
4.43153e-06
4.35979e-06
4.31605e-06
4.28137e-06
4.25792e-06
4.24484e-06
4.24177e-06
4.24683e-06
4.25936e-06
4.27856e-06
4.30424e-06
4.33597e-06
4.37306e-06
4.41471e-06
4.46003e-06
4.50828e-06
4.55925e-06
4.61348e-06
4.67134e-06
4.73327e-06
4.79963e-06
4.87087e-06
4.94625e-06
5.02504e-06
5.10636e-06
5.18947e-06
5.2736e-06
5.35808e-06
5.4422e-06
5.5254e-06
5.60714e-06
5.68688e-06
5.76413e-06
5.83835e-06
5.90901e-06
5.97564e-06
6.03792e-06
6.09578e-06
6.14988e-06
6.20166e-06
6.25296e-06
6.30613e-06
6.3616e-06
6.41828e-06
6.47395e-06
6.52706e-06
6.57869e-06
6.63082e-06
6.68503e-06
6.74177e-06
6.79784e-06
6.84626e-06
6.882e-06
6.90505e-06
6.91736e-06
6.91992e-06
6.91332e-06
6.89794e-06
6.87475e-06
6.84498e-06
6.80968e-06
6.7694e-06
6.72472e-06
6.67675e-06
6.6269e-06
6.57666e-06
6.52738e-06
6.48026e-06
6.43684e-06
6.39859e-06
6.36648e-06
6.34093e-06
6.32176e-06
6.30803e-06
6.29745e-06
6.28574e-06
6.26657e-06
6.23343e-06
6.18411e-06
6.12237e-06
6.05329e-06
5.97884e-06
5.8996e-06
5.81548e-06
5.72642e-06
5.63331e-06
5.53704e-06
5.43863e-06
5.33901e-06
5.23896e-06
5.13932e-06
5.04122e-06
4.9458e-06
4.85413e-06
4.7669e-06
4.68475e-06
4.60771e-06
4.53626e-06
4.47056e-06
4.41126e-06
4.36504e-06
4.33661e-06
4.31699e-06
4.30726e-06
4.30633e-06
4.31391e-06
4.32847e-06
4.34954e-06
4.37634e-06
4.40853e-06
4.44569e-06
4.48723e-06
4.53252e-06
4.58096e-06
4.63213e-06
4.68601e-06
4.74298e-06
4.80347e-06
4.86768e-06
4.93577e-06
5.00773e-06
5.08287e-06
5.16052e-06
5.23992e-06
5.32044e-06
5.40138e-06
5.48216e-06
5.56219e-06
5.64095e-06
5.71798e-06
5.79285e-06
5.86513e-06
5.93441e-06
6.00029e-06
6.06246e-06
6.12077e-06
6.1753e-06
6.22688e-06
6.27711e-06
6.32736e-06
6.37906e-06
6.43189e-06
6.48442e-06
6.53525e-06
6.58378e-06
6.63095e-06
6.6779e-06
6.72479e-06
6.77052e-06
6.8117e-06
6.8437e-06
6.86427e-06
6.87397e-06
6.87409e-06
6.86538e-06
6.84851e-06
6.82411e-06
6.79314e-06
6.75666e-06
6.7156e-06
6.67069e-06
6.62273e-06
6.57284e-06
6.52225e-06
6.47218e-06
6.42367e-06
6.37764e-06
6.33505e-06
6.29663e-06
6.26261e-06
6.2326e-06
6.20558e-06
6.17982e-06
6.1527e-06
6.12079e-06
6.08029e-06
6.02832e-06
5.96513e-06
5.89396e-06
5.8182e-06
5.73931e-06
5.65791e-06
5.57393e-06
5.48773e-06
5.40014e-06
5.31189e-06
5.22382e-06
5.13666e-06
5.05099e-06
4.96745e-06
4.88679e-06
4.80971e-06
4.73686e-06
4.66849e-06
4.60494e-06
4.54606e-06
4.4922e-06
4.44357e-06
4.4005e-06
4.37901e-06
4.36365e-06
4.35628e-06
4.35751e-06
4.36626e-06
4.38231e-06
4.40435e-06
4.432e-06
4.46447e-06
4.50142e-06
4.54246e-06
4.58709e-06
4.63487e-06
4.68541e-06
4.73848e-06
4.79415e-06
4.85267e-06
4.91433e-06
4.97928e-06
5.04746e-06
5.11863e-06
5.19217e-06
5.26748e-06
5.34389e-06
5.42082e-06
5.49767e-06
5.57393e-06
5.64907e-06
5.72265e-06
5.79428e-06
5.86361e-06
5.93035e-06
5.99418e-06
6.05486e-06
6.11224e-06
6.16636e-06
6.21735e-06
6.26598e-06
6.31372e-06
6.36127e-06
6.40937e-06
6.45742e-06
6.50412e-06
6.5484e-06
6.59017e-06
6.6301e-06
6.66858e-06
6.70483e-06
6.7371e-06
6.76279e-06
6.77928e-06
6.78573e-06
6.78276e-06
6.77131e-06
6.7521e-06
6.72588e-06
6.69341e-06
6.6556e-06
6.61342e-06
6.56778e-06
6.51948e-06
6.46935e-06
6.41838e-06
6.36752e-06
6.31766e-06
6.26949e-06
6.22351e-06
6.18015e-06
6.13956e-06
6.10146e-06
6.06505e-06
6.02903e-06
5.99167e-06
5.95102e-06
5.90495e-06
5.85159e-06
5.78996e-06
5.72106e-06
5.6475e-06
5.57184e-06
5.49531e-06
5.41817e-06
5.34055e-06
5.26285e-06
5.18567e-06
5.10948e-06
5.03488e-06
4.96242e-06
4.89248e-06
4.8255e-06
4.76182e-06
4.70184e-06
4.6459e-06
4.59403e-06
4.54617e-06
4.50254e-06
4.46347e-06
4.42918e-06
4.40042e-06
4.40071e-06
4.39586e-06
4.39829e-06
4.4082e-06
4.42455e-06
4.44718e-06
4.4749e-06
4.50738e-06
4.54388e-06
4.58406e-06
4.6276e-06
4.67409e-06
4.72325e-06
4.77482e-06
4.82871e-06
4.885e-06
4.94384e-06
5.00536e-06
5.06962e-06
5.13646e-06
5.20555e-06
5.27632e-06
5.34822e-06
5.42066e-06
5.49312e-06
5.56507e-06
5.63604e-06
5.70558e-06
5.7733e-06
5.83889e-06
5.90211e-06
5.96274e-06
6.0206e-06
6.07557e-06
6.12765e-06
6.17703e-06
6.22388e-06
6.26851e-06
6.31209e-06
6.35512e-06
6.39762e-06
6.43879e-06
6.47759e-06
6.51347e-06
6.54652e-06
6.577e-06
6.6047e-06
6.62851e-06
6.64677e-06
6.65782e-06
6.66034e-06
6.65413e-06
6.63979e-06
6.61813e-06
6.58993e-06
6.55597e-06
6.51703e-06
6.47394e-06
6.42763e-06
6.37897e-06
6.3287e-06
6.27757e-06
6.22635e-06
6.17572e-06
6.12622e-06
6.07819e-06
6.0318e-06
5.98706e-06
5.94377e-06
5.90145e-06
5.85929e-06
5.81614e-06
5.77075e-06
5.72198e-06
5.66884e-06
5.61062e-06
5.54718e-06
5.4796e-06
5.40986e-06
5.34019e-06
5.27102e-06
5.20262e-06
5.13515e-06
5.06895e-06
5.0044e-06
4.94167e-06
4.88117e-06
4.82324e-06
4.76805e-06
4.71557e-06
4.66645e-06
4.62091e-06
4.57908e-06
4.54095e-06
4.50652e-06
4.47598e-06
4.44957e-06
4.4275e-06
4.41061e-06
4.42848e-06
4.43198e-06
4.44212e-06
4.45875e-06
4.48091e-06
4.50842e-06
4.54024e-06
4.57602e-06
4.61508e-06
4.65714e-06
4.70193e-06
4.74915e-06
4.79861e-06
4.85018e-06
4.9038e-06
4.95953e-06
5.01747e-06
5.07765e-06
5.13996e-06
5.20424e-06
5.27012e-06
5.33709e-06
5.40464e-06
5.47226e-06
5.53946e-06
5.60578e-06
5.6708e-06
5.73411e-06
5.7954e-06
5.85441e-06
5.91099e-06
5.96502e-06
6.01642e-06
6.06513e-06
6.11122e-06
6.15498e-06
6.19642e-06
6.2356e-06
6.27334e-06
6.30975e-06
6.34458e-06
6.37709e-06
6.40664e-06
6.43296e-06
6.45608e-06
6.47585e-06
6.49182e-06
6.50298e-06
6.50809e-06
6.50622e-06
6.49676e-06
6.47985e-06
6.45611e-06
6.42633e-06
6.39127e-06
6.35173e-06
6.30845e-06
6.26218e-06
6.21373e-06
6.16388e-06
6.11326e-06
6.06246e-06
6.01205e-06
5.96242e-06
5.91385e-06
5.86641e-06
5.82006e-06
5.77463e-06
5.72982e-06
5.68515e-06
5.63999e-06
5.59353e-06
5.54504e-06
5.49403e-06
5.44018e-06
5.38336e-06
5.32376e-06
5.26229e-06
5.20072e-06
5.14019e-06
5.08096e-06
5.02322e-06
4.96704e-06
4.91249e-06
4.85976e-06
4.80928e-06
4.7613e-06
4.71602e-06
4.67352e-06
4.63379e-06
4.59729e-06
4.5641e-06
4.53422e-06
4.50762e-06
4.48434e-06
4.46457e-06
4.44848e-06
4.43637e-06
4.42915e-06
4.46097e-06
4.47093e-06
4.48696e-06
4.50862e-06
4.53499e-06
4.5659e-06
4.60036e-06
4.63808e-06
4.67842e-06
4.72115e-06
4.76606e-06
4.81295e-06
4.86171e-06
4.91224e-06
4.96454e-06
5.01862e-06
5.07453e-06
5.1322e-06
5.1915e-06
5.25217e-06
5.31387e-06
5.37615e-06
5.43856e-06
5.50061e-06
5.56189e-06
5.62197e-06
5.68047e-06
5.73707e-06
5.79146e-06
5.84346e-06
5.89301e-06
5.94006e-06
5.98456e-06
6.02648e-06
6.0659e-06
6.10304e-06
6.13777e-06
6.16989e-06
6.20011e-06
6.22833e-06
6.25423e-06
6.2773e-06
6.29713e-06
6.31353e-06
6.3264e-06
6.33537e-06
6.34002e-06
6.33963e-06
6.33343e-06
6.32093e-06
6.30199e-06
6.27692e-06
6.24635e-06
6.21102e-06
6.17168e-06
6.12908e-06
6.0839e-06
6.03679e-06
5.98842e-06
5.93942e-06
5.89023e-06
5.84129e-06
5.79298e-06
5.74549e-06
5.69891e-06
5.65315e-06
5.60811e-06
5.56356e-06
5.51929e-06
5.47496e-06
5.43011e-06
5.38428e-06
5.33708e-06
5.28842e-06
5.23826e-06
5.18667e-06
5.13385e-06
5.0805e-06
5.02781e-06
4.9766e-06
4.92714e-06
4.87957e-06
4.83387e-06
4.79008e-06
4.74834e-06
4.709e-06
4.67219e-06
4.638e-06
4.60646e-06
4.57759e-06
4.55166e-06
4.52866e-06
4.50854e-06
4.49131e-06
4.47703e-06
4.46591e-06
4.45809e-06
4.45394e-06
4.45439e-06
4.49707e-06
4.51184e-06
4.53214e-06
4.55733e-06
4.58651e-06
4.61948e-06
4.65533e-06
4.69377e-06
4.73425e-06
4.77657e-06
4.82059e-06
4.86618e-06
4.91327e-06
4.96182e-06
5.0118e-06
5.06322e-06
5.11606e-06
5.17023e-06
5.22553e-06
5.28171e-06
5.33844e-06
5.3953e-06
5.45189e-06
5.50779e-06
5.56261e-06
5.61598e-06
5.66755e-06
5.71706e-06
5.76425e-06
5.80899e-06
5.85127e-06
5.89109e-06
5.92841e-06
5.96319e-06
5.99542e-06
6.02524e-06
6.05246e-06
6.07687e-06
6.09881e-06
6.11829e-06
6.13506e-06
6.14878e-06
6.15921e-06
6.16616e-06
6.16942e-06
6.16866e-06
6.16353e-06
6.15365e-06
6.13862e-06
6.11828e-06
6.09273e-06
6.06237e-06
6.02783e-06
5.98975e-06
5.9488e-06
5.90566e-06
5.86092e-06
5.81512e-06
5.76882e-06
5.72243e-06
5.67625e-06
5.63056e-06
5.58557e-06
5.54138e-06
5.49793e-06
5.45509e-06
5.41274e-06
5.37066e-06
5.3286e-06
5.28628e-06
5.24369e-06
5.20061e-06
5.1569e-06
5.11264e-06
5.06798e-06
5.02306e-06
4.9781e-06
4.93353e-06
4.88994e-06
4.84802e-06
4.80804e-06
4.77007e-06
4.73407e-06
4.70007e-06
4.66817e-06
4.63857e-06
4.61134e-06
4.58652e-06
4.56412e-06
4.54417e-06
4.52678e-06
4.51192e-06
4.49953e-06
4.48968e-06
4.48245e-06
4.47806e-06
4.47665e-06
4.47864e-06
4.48499e-06
4.53592e-06
4.55403e-06
4.57721e-06
4.60462e-06
4.63536e-06
4.66922e-06
4.70533e-06
4.74343e-06
4.78303e-06
4.82399e-06
4.86621e-06
4.90961e-06
4.95417e-06
4.99985e-06
5.04664e-06
5.0945e-06
5.14339e-06
5.19319e-06
5.24369e-06
5.29464e-06
5.34573e-06
5.3966e-06
5.44687e-06
5.49617e-06
5.54416e-06
5.5905e-06
5.63492e-06
5.67716e-06
5.71702e-06
5.75442e-06
5.78939e-06
5.82193e-06
5.85201e-06
5.87955e-06
5.90451e-06
5.9269e-06
5.94654e-06
5.96335e-06
5.97751e-06
5.989e-06
5.99764e-06
6.00315e-06
6.00529e-06
6.00404e-06
5.99922e-06
5.99059e-06
5.97796e-06
5.96116e-06
5.94009e-06
5.9148e-06
5.88552e-06
5.85265e-06
5.81676e-06
5.77841e-06
5.73817e-06
5.69656e-06
5.65406e-06
5.61103e-06
5.56772e-06
5.52458e-06
5.48191e-06
5.43988e-06
5.39861e-06
5.35809e-06
5.31822e-06
5.27889e-06
5.23997e-06
5.20125e-06
5.1626e-06
5.1239e-06
5.0853e-06
5.04671e-06
5.00814e-06
4.96976e-06
4.93177e-06
4.89442e-06
4.85779e-06
4.82192e-06
4.7872e-06
4.75412e-06
4.72292e-06
4.69365e-06
4.66626e-06
4.64076e-06
4.61724e-06
4.59578e-06
4.57642e-06
4.55916e-06
4.54405e-06
4.53108e-06
4.52029e-06
4.51164e-06
4.50511e-06
4.50081e-06
4.49884e-06
4.49942e-06
4.50273e-06
4.50925e-06
4.51988e-06
4.57696e-06
4.59711e-06
4.62193e-06
4.6504e-06
4.68163e-06
4.71534e-06
4.75074e-06
4.78757e-06
4.82543e-06
4.86419e-06
4.90381e-06
4.94425e-06
4.98551e-06
5.02756e-06
5.07038e-06
5.11393e-06
5.15814e-06
5.20289e-06
5.24797e-06
5.29314e-06
5.33812e-06
5.38259e-06
5.42621e-06
5.46866e-06
5.50962e-06
5.54883e-06
5.58603e-06
5.62103e-06
5.65367e-06
5.68389e-06
5.71174e-06
5.73722e-06
5.76029e-06
5.78086e-06
5.79884e-06
5.8142e-06
5.82684e-06
5.83672e-06
5.84394e-06
5.84849e-06
5.8502e-06
5.8489e-06
5.84444e-06
5.83685e-06
5.82601e-06
5.81177e-06
5.79407e-06
5.7729e-06
5.74833e-06
5.72058e-06
5.68988e-06
5.65662e-06
5.62125e-06
5.58424e-06
5.54603e-06
5.50707e-06
5.46771e-06
5.42819e-06
5.38867e-06
5.34958e-06
5.31112e-06
5.27341e-06
5.23649e-06
5.20031e-06
5.16476e-06
5.12974e-06
5.09514e-06
5.06083e-06
5.02678e-06
4.99304e-06
4.95973e-06
4.92686e-06
4.89451e-06
4.86285e-06
4.83215e-06
4.80254e-06
4.77391e-06
4.74619e-06
4.71956e-06
4.69438e-06
4.67086e-06
4.64903e-06
4.62887e-06
4.61037e-06
4.59357e-06
4.57853e-06
4.56525e-06
4.55377e-06
4.5441e-06
4.53625e-06
4.53024e-06
4.52601e-06
4.5236e-06
4.52316e-06
4.52479e-06
4.52877e-06
4.53528e-06
4.54483e-06
4.55831e-06
4.61991e-06
4.64096e-06
4.66635e-06
4.69489e-06
4.72565e-06
4.75834e-06
4.7922e-06
4.82699e-06
4.86236e-06
4.89822e-06
4.93458e-06
4.9714e-06
5.00872e-06
5.04651e-06
5.08476e-06
5.12341e-06
5.1624e-06
5.2016e-06
5.24083e-06
5.27987e-06
5.31846e-06
5.35633e-06
5.39319e-06
5.42874e-06
5.46272e-06
5.4949e-06
5.52508e-06
5.5531e-06
5.57885e-06
5.60228e-06
5.62345e-06
5.64235e-06
5.65892e-06
5.67308e-06
5.68475e-06
5.69389e-06
5.70045e-06
5.70442e-06
5.70586e-06
5.70472e-06
5.70092e-06
5.69437e-06
5.68503e-06
5.67294e-06
5.65804e-06
5.64027e-06
5.61965e-06
5.5963e-06
5.57042e-06
5.54225e-06
5.51205e-06
5.4801e-06
5.44678e-06
5.41244e-06
5.37746e-06
5.34219e-06
5.30689e-06
5.27175e-06
5.23692e-06
5.2027e-06
5.16926e-06
5.13661e-06
5.10476e-06
5.07365e-06
5.04318e-06
5.01327e-06
4.98384e-06
4.95485e-06
4.92633e-06
4.89838e-06
4.87112e-06
4.84457e-06
4.81883e-06
4.79406e-06
4.77047e-06
4.74805e-06
4.72663e-06
4.70604e-06
4.68634e-06
4.66779e-06
4.65056e-06
4.6347e-06
4.62019e-06
4.60703e-06
4.59524e-06
4.58487e-06
4.57592e-06
4.56844e-06
4.56247e-06
4.558e-06
4.55504e-06
4.5536e-06
4.55371e-06
4.55558e-06
4.55932e-06
4.56524e-06
4.57357e-06
4.58481e-06
4.59987e-06
4.66485e-06
4.68579e-06
4.71081e-06
4.73857e-06
4.76808e-06
4.79901e-06
4.83065e-06
4.86277e-06
4.89505e-06
4.92747e-06
4.96002e-06
4.99273e-06
5.02562e-06
5.0587e-06
5.09194e-06
5.1253e-06
5.15873e-06
5.19211e-06
5.22528e-06
5.25805e-06
5.29021e-06
5.32151e-06
5.35171e-06
5.38055e-06
5.40782e-06
5.43333e-06
5.45692e-06
5.47847e-06
5.49789e-06
5.51518e-06
5.53036e-06
5.54341e-06
5.55428e-06
5.56291e-06
5.56922e-06
5.57321e-06
5.57486e-06
5.57415e-06
5.57111e-06
5.56573e-06
5.55799e-06
5.54786e-06
5.53539e-06
5.52063e-06
5.50356e-06
5.48419e-06
5.46265e-06
5.4391e-06
5.4138e-06
5.38701e-06
5.35891e-06
5.32975e-06
5.2998e-06
5.26935e-06
5.23869e-06
5.2081e-06
5.17778e-06
5.14785e-06
5.11848e-06
5.08985e-06
5.06205e-06
5.03506e-06
5.00886e-06
4.98339e-06
4.95856e-06
4.93432e-06
4.91063e-06
4.88747e-06
4.86493e-06
4.84309e-06
4.82203e-06
4.8018e-06
4.78246e-06
4.76413e-06
4.74687e-06
4.73066e-06