/*--------------------------------*- C++ -*----------------------------------*\
| =========                 |                                                 |
| \\      /  F ield         | OpenFOAM: The Open Source CFD Toolbox           |
|  \\    /   O peration     | Version:  5.0                                   |
|   \\  /    A nd           | Web:      www.OpenFOAM.org                      |
|    \\/     M anipulation  |                                                 |
\*---------------------------------------------------------------------------*/
FoamFile
{
    version     2.0;
    format      ascii;
    class       volScalarField;
    location    "20000";
    object      nut;
}
// * * * * * * * * * * * * * * * * * * * * * * * * * * * * * * * * * * * * * //

dimensions      [0 2 -1 0 0 0 0];

internalField   nonuniform List<scalar> 
14751
(
4.05506e-12
3.95163e-12
3.69335e-12
3.34512e-12
2.95667e-12
2.60495e-12
2.34918e-12
2.23565e-12
2.07718e-12
1.88884e-12
1.7253e-12
1.59238e-12
1.48173e-12
1.44964e-12
1.45042e-12
1.46448e-12
1.44122e-12
1.40151e-12
1.36995e-12
1.30412e-12
1.24891e-12
1.21749e-12
1.21459e-12
1.23401e-12
1.27053e-12
1.31887e-12
1.3775e-12
1.44324e-12
1.5135e-12
1.58659e-12
1.66252e-12
1.74271e-12
1.82884e-12
1.9219e-12
2.02224e-12
2.12249e-12
2.2277e-12
2.34028e-12
2.44885e-12
2.5097e-12
2.52814e-12
2.50907e-12
2.47086e-12
2.46121e-12
2.51456e-12
2.56608e-12
2.55137e-12
2.52454e-12
2.44797e-12
2.43928e-12
2.5439e-12
2.69454e-12
2.85691e-12
2.9709e-12
2.98366e-12
2.9614e-12
2.93696e-12
2.89855e-12
2.81804e-12
2.69439e-12
2.59574e-12
2.51351e-12
2.43164e-12
2.35441e-12
2.26858e-12
2.20387e-12
2.18127e-12
2.07459e-12
1.95159e-12
1.85264e-12
1.79337e-12
1.7817e-12
1.79656e-12
1.79492e-12
1.72318e-12
1.76464e-12
2.13227e-12
2.75915e-12
3.30786e-12
3.66562e-12
4.09965e-12
4.42259e-12
4.80265e-12
5.19031e-12
5.51513e-12
5.78971e-12
6.02473e-12
6.0905e-12
6.23201e-12
6.38892e-12
6.51759e-12
6.68802e-12
6.54612e-12
6.25962e-12
5.95118e-12
5.66649e-12
5.2809e-12
4.95501e-12
4.49759e-12
7.62487e-10
7.43788e-10
6.96724e-10
6.33137e-10
5.62051e-10
4.97564e-10
4.51002e-10
4.31608e-10
4.03358e-10
3.68971e-10
3.39061e-10
3.14864e-10
2.9476e-10
2.90115e-10
2.92002e-10
2.96582e-10
2.93563e-10
2.87084e-10
2.82166e-10
2.70035e-10
2.59913e-10
2.54596e-10
2.55148e-10
2.60345e-10
2.69133e-10
2.80429e-10
2.93923e-10
3.08956e-10
3.24974e-10
3.41619e-10
3.58887e-10
3.77082e-10
3.96566e-10
4.17558e-10
4.40141e-10
4.62695e-10
4.86319e-10
5.11551e-10
5.35924e-10
5.4983e-10
5.54389e-10
5.50673e-10
5.42682e-10
5.40888e-10
5.52909e-10
5.64525e-10
5.61533e-10
5.55838e-10
5.39112e-10
5.37226e-10
5.60232e-10
5.9333e-10
6.2898e-10
6.53961e-10
6.56627e-10
6.51532e-10
6.45907e-10
6.37176e-10
6.19161e-10
5.91637e-10
5.69568e-10
5.51073e-10
5.32624e-10
5.15138e-10
4.95716e-10
4.80861e-10
4.75161e-10
4.51113e-10
4.23496e-10
4.01092e-10
3.87267e-10
3.83674e-10
3.85693e-10
3.84049e-10
3.67293e-10
3.74517e-10
4.50484e-10
5.80247e-10
6.92314e-10
7.63371e-10
8.49436e-10
9.11482e-10
9.8432e-10
1.0577e-09
1.11733e-09
1.16599e-09
1.20605e-09
1.21177e-09
1.23227e-09
1.2555e-09
1.27289e-09
1.29874e-09
1.26372e-09
1.20163e-09
1.13644e-09
1.0771e-09
9.99713e-10
9.35348e-10
8.47723e-10
1.52338e-08
1.50103e-08
1.41546e-08
1.29512e-08
1.15803e-08
1.03224e-08
9.42269e-09
9.11518e-09
8.61858e-09
7.96867e-09
7.40168e-09
6.95573e-09
6.58115e-09
6.55219e-09
6.67014e-09
6.85811e-09
6.86696e-09
6.78806e-09
6.74818e-09
6.52671e-09
6.3462e-09
6.27803e-09
6.35267e-09
6.54309e-09
6.82505e-09
7.17202e-09
7.57691e-09
8.02348e-09
8.49744e-09
8.98897e-09
9.49771e-09
1.00317e-08
1.06005e-08
1.12102e-08
1.18666e-08
1.25192e-08
1.31996e-08
1.39261e-08
1.46379e-08
1.50637e-08
1.52302e-08
1.51648e-08
1.49711e-08
1.49355e-08
1.52854e-08
1.56343e-08
1.5571e-08
1.54377e-08
1.49852e-08
1.49275e-08
1.55579e-08
1.64668e-08
1.74469e-08
1.8138e-08
1.82062e-08
1.80535e-08
1.78829e-08
1.76283e-08
1.71181e-08
1.63387e-08
1.57061e-08
1.51708e-08
1.46341e-08
1.41228e-08
1.35542e-08
1.31058e-08
1.2916e-08
1.22152e-08
1.14165e-08
1.0757e-08
1.03273e-08
1.01703e-08
1.01614e-08
1.00605e-08
9.54404e-09
9.6196e-09
1.14143e-08
1.45378e-08
1.71674e-08
1.87398e-08
2.06888e-08
2.19915e-08
2.35006e-08
2.49742e-08
2.60856e-08
2.69098e-08
2.75351e-08
2.73487e-08
2.74959e-08
2.77079e-08
2.7779e-08
2.81945e-08
2.71371e-08
2.55159e-08
2.38819e-08
2.24509e-08
2.06176e-08
1.91695e-08
1.72922e-08
1.09087e-07
1.07346e-07
1.01879e-07
9.38612e-08
8.41916e-08
7.5049e-08
6.82714e-08
6.67392e-08
6.37573e-08
5.92224e-08
5.52326e-08
5.23107e-08
4.95705e-08
4.96584e-08
5.08933e-08
5.29542e-08
5.35091e-08
5.3159e-08
5.3336e-08
5.18654e-08
5.06691e-08
5.03893e-08
5.13306e-08
5.32836e-08
5.60562e-08
5.94092e-08
6.32884e-08
6.75632e-08
7.21028e-08
7.68077e-08
8.16707e-08
8.6764e-08
9.21804e-08
9.79868e-08
1.04322e-07
1.10552e-07
1.16985e-07
1.23903e-07
1.31104e-07
1.35667e-07
1.37751e-07
1.37566e-07
1.35799e-07
1.35018e-07
1.3814e-07
1.41855e-07
1.41344e-07
1.40621e-07
1.36428e-07
1.35356e-07
1.40775e-07
1.48811e-07
1.57714e-07
1.64276e-07
1.64776e-07
1.62984e-07
1.60986e-07
1.584e-07
1.53585e-07
1.46024e-07
1.39822e-07
1.34579e-07
1.29285e-07
1.2434e-07
1.18828e-07
1.14289e-07
1.12712e-07
1.05919e-07
9.82638e-08
9.19529e-08
8.76884e-08
8.59452e-08
8.57416e-08
8.53476e-08
8.06912e-08
7.99975e-08
9.27946e-08
1.17236e-07
1.38141e-07
1.5036e-07
1.67152e-07
1.77358e-07
1.88664e-07
1.99552e-07
2.07205e-07
2.12113e-07
2.16115e-07
2.12424e-07
2.11875e-07
2.12232e-07
2.1153e-07
2.1527e-07
2.05327e-07
1.90717e-07
1.7647e-07
1.65197e-07
1.49973e-07
1.3899e-07
1.24643e-07
4.52008e-07
4.46743e-07
4.26021e-07
3.95198e-07
3.57333e-07
3.20208e-07
2.89907e-07
2.88194e-07
2.78807e-07
2.60143e-07
2.43809e-07
2.32135e-07
2.17794e-07
2.18043e-07
2.24348e-07
2.37427e-07
2.43085e-07
2.4247e-07
2.46994e-07
2.40881e-07
2.34926e-07
2.32941e-07
2.37091e-07
2.4644e-07
2.60041e-07
2.76615e-07
2.95991e-07
3.17567e-07
3.40681e-07
3.64744e-07
3.89648e-07
4.15716e-07
4.43479e-07
4.73319e-07
5.05931e-07
5.3808e-07
5.70939e-07
6.06401e-07
6.46167e-07
6.71767e-07
6.84194e-07
6.83861e-07
6.71629e-07
6.60856e-07
6.74751e-07
6.97306e-07
6.94599e-07
6.95481e-07
6.69335e-07
6.54764e-07
6.77334e-07
7.14176e-07
7.61066e-07
7.99757e-07
8.02481e-07
7.91e-07
7.79573e-07
7.66847e-07
7.43568e-07
7.02012e-07
6.69253e-07
6.42262e-07
6.14366e-07
5.89734e-07
5.61138e-07
5.34993e-07
5.30544e-07
4.9635e-07
4.56976e-07
4.23886e-07
4.00422e-07
3.90217e-07
3.89986e-07
3.9263e-07
3.67173e-07
3.49693e-07
3.96026e-07
5.06953e-07
6.10057e-07
6.58269e-07
7.28694e-07
7.6053e-07
8.00527e-07
8.45826e-07
8.75175e-07
8.90762e-07
9.0856e-07
8.78818e-07
8.67915e-07
8.6384e-07
8.5343e-07
8.53135e-07
8.17756e-07
7.58694e-07
6.99059e-07
6.53138e-07
5.96225e-07
5.60874e-07
5.06246e-07
1.25568e-06
1.25469e-06
1.20771e-06
1.14023e-06
1.0512e-06
9.55405e-07
8.6384e-07
8.8374e-07
8.68048e-07
8.2056e-07
7.79587e-07
7.45658e-07
6.94817e-07
6.96999e-07
7.21999e-07
7.77727e-07
8.05451e-07
8.10392e-07
8.43444e-07
8.31666e-07
8.159e-07
8.0824e-07
8.19528e-07
8.47644e-07
8.89534e-07
9.41149e-07
1.00241e-06
1.07116e-06
1.14534e-06
1.22289e-06
1.30307e-06
1.38649e-06
1.4747e-06
1.56845e-06
1.66835e-06
1.76748e-06
1.86877e-06
1.97737e-06
2.09644e-06
2.16758e-06
2.20262e-06
2.19931e-06
2.15809e-06
2.126e-06
2.17897e-06
2.25149e-06
2.24449e-06
2.25596e-06
2.15471e-06
2.08713e-06
2.14703e-06
2.25698e-06
2.39949e-06
2.52464e-06
2.52776e-06
2.49204e-06
2.46195e-06
2.43035e-06
2.36558e-06
2.23269e-06
2.13003e-06
2.04718e-06
1.96377e-06
1.89242e-06
1.7995e-06
1.70382e-06
1.6863e-06
1.59329e-06
1.47621e-06
1.36438e-06
1.27271e-06
1.22118e-06
1.20325e-06
1.1929e-06
1.07816e-06
9.4032e-07
1.04307e-06
1.41865e-06
1.77942e-06
1.87292e-06
2.02321e-06
2.0491e-06
2.12818e-06
2.22795e-06
2.2835e-06
2.31429e-06
2.35301e-06
2.26619e-06
2.22415e-06
2.19537e-06
2.12938e-06
2.10448e-06
2.02391e-06
1.90835e-06
1.79097e-06
1.68329e-06
1.55501e-06
1.48565e-06
1.36535e-06
2.40181e-06
2.33301e-06
2.25224e-06
2.16345e-06
2.0762e-06
2.00408e-06
1.96185e-06
1.97791e-06
1.95906e-06
1.92435e-06
1.87446e-06
1.80998e-06
1.70369e-06
1.71971e-06
1.78693e-06
1.93316e-06
2.00228e-06
2.02549e-06
2.13033e-06
2.12571e-06
2.11593e-06
2.11321e-06
2.14628e-06
2.21152e-06
2.30277e-06
2.41273e-06
2.54291e-06
2.68792e-06
2.84401e-06
3.00691e-06
3.17449e-06
3.34691e-06
3.52686e-06
3.71458e-06
3.90886e-06
4.10168e-06
4.29801e-06
4.50584e-06
4.72386e-06
4.83905e-06
4.89464e-06
4.88178e-06
4.80746e-06
4.77193e-06
4.89591e-06
5.02314e-06
4.99629e-06
5.01558e-06
4.80724e-06
4.68419e-06
4.81521e-06
5.04706e-06
5.31393e-06
5.52981e-06
5.52619e-06
5.46374e-06
5.4136e-06
5.35718e-06
5.22972e-06
4.98134e-06
4.78191e-06
4.61337e-06
4.45722e-06
4.31786e-06
4.1111e-06
3.90389e-06
3.8325e-06
3.67032e-06
3.4608e-06
3.23534e-06
3.02346e-06
2.8811e-06
2.78727e-06
2.67834e-06
2.36869e-06
1.92893e-06
2.06966e-06
2.96389e-06
3.81668e-06
3.87658e-06
4.08117e-06
4.02663e-06
4.13387e-06
4.19658e-06
4.19752e-06
4.1709e-06
4.11276e-06
3.99861e-06
3.90197e-06
3.79747e-06
3.67387e-06
3.5546e-06
3.40321e-06
3.23193e-06
3.06139e-06
2.90113e-06
2.7465e-06
2.61467e-06
2.49069e-06
3.76378e-06
3.65746e-06
3.56212e-06
3.46986e-06
3.39637e-06
3.35122e-06
3.34202e-06
3.37191e-06
3.37487e-06
3.37355e-06
3.38768e-06
3.41552e-06
3.45587e-06
3.50754e-06
3.62691e-06
3.80319e-06
3.90153e-06
3.93998e-06
4.15183e-06
4.15111e-06
4.18062e-06
4.21321e-06
4.29466e-06
4.41889e-06
4.57823e-06
4.76165e-06
4.97606e-06
5.21126e-06
5.46234e-06
5.72282e-06
5.9889e-06
6.25931e-06
6.53792e-06
6.82285e-06
7.11072e-06
7.39378e-06
7.67786e-06
7.97237e-06
8.2775e-06
8.41476e-06
8.47841e-06
8.45258e-06
8.35065e-06
8.31487e-06
8.5088e-06
8.67968e-06
8.58387e-06
8.56911e-06
8.28535e-06
8.132e-06
8.35604e-06
8.70936e-06
9.07402e-06
9.33708e-06
9.28798e-06
9.17974e-06
9.0387e-06
8.84913e-06
8.60403e-06
8.33105e-06
8.0785e-06
7.82984e-06
7.57828e-06
7.31476e-06
7.03087e-06
6.77213e-06
6.5268e-06
6.25604e-06
5.97998e-06
5.71624e-06
5.48163e-06
5.282e-06
5.09437e-06
4.90004e-06
4.57051e-06
4.24418e-06
4.54917e-06
5.56475e-06
6.24904e-06
6.31753e-06
6.34624e-06
6.31394e-06
6.33637e-06
6.32504e-06
6.27739e-06
6.19709e-06
6.08056e-06
5.92896e-06
5.77821e-06
5.61331e-06
5.43167e-06
5.24275e-06
5.03041e-06
4.80546e-06
4.58305e-06
4.37414e-06
4.17863e-06
4.00797e-06
3.86824e-06
5.37376e-06
5.25136e-06
5.16759e-06
5.10252e-06
5.07519e-06
5.08575e-06
5.13111e-06
5.20409e-06
5.26736e-06
5.34183e-06
5.44319e-06
5.57091e-06
5.7335e-06
5.92032e-06
6.08815e-06
6.28171e-06
6.43273e-06
6.54132e-06
6.77945e-06
6.81186e-06
6.88899e-06
6.98492e-06
7.13872e-06
7.34103e-06
7.58346e-06
7.85524e-06
8.16118e-06
8.49038e-06
8.83654e-06
9.19239e-06
9.55264e-06
9.91455e-06
1.02811e-05
1.0648e-05
1.10078e-05
1.13557e-05
1.16934e-05
1.20238e-05
1.2327e-05
1.2463e-05
1.25065e-05
1.2467e-05
1.23628e-05
1.2413e-05
1.26051e-05
1.27308e-05
1.27153e-05
1.26346e-05
1.22978e-05
1.21472e-05
1.24842e-05
1.29202e-05
1.33088e-05
1.33871e-05
1.32586e-05
1.30844e-05
1.28564e-05
1.2575e-05
1.22543e-05
1.1922e-05
1.15931e-05
1.12569e-05
1.0911e-05
1.05518e-05
1.01848e-05
9.83918e-06
9.49385e-06
9.15692e-06
8.83487e-06
8.53929e-06
8.2755e-06
8.04741e-06
7.85352e-06
7.71082e-06
7.51548e-06
7.43035e-06
7.86538e-06
8.69335e-06
8.9092e-06
8.91435e-06
8.86284e-06
8.79879e-06
8.74392e-06
8.66231e-06
8.55083e-06
8.4073e-06
8.23326e-06
8.03428e-06
7.82512e-06
7.60069e-06
7.36071e-06
7.10916e-06
6.84222e-06
6.57031e-06
6.30586e-06
6.05951e-06
5.83321e-06
5.63981e-06
5.49055e-06
7.24428e-06
7.13916e-06
7.10431e-06
7.10566e-06
7.1626e-06
7.26311e-06
7.39683e-06
7.55922e-06
7.72858e-06
7.91971e-06
8.13892e-06
8.37543e-06
8.6259e-06
8.81224e-06
9.02463e-06
9.24972e-06
9.47188e-06
9.63567e-06
9.86751e-06
9.98047e-06
1.01351e-05
1.03216e-05
1.05647e-05
1.08558e-05
1.11878e-05
1.15513e-05
1.19472e-05
1.23648e-05
1.27972e-05
1.32366e-05
1.36765e-05
1.41127e-05
1.45454e-05
1.49665e-05
1.53677e-05
1.57456e-05
1.60935e-05
1.64037e-05
1.66426e-05
1.67477e-05
1.67713e-05
1.67472e-05
1.67123e-05
1.68069e-05
1.69754e-05
1.70702e-05
1.71037e-05
1.7023e-05
1.67189e-05
1.6678e-05
1.70254e-05
1.74498e-05
1.7705e-05
1.75338e-05
1.73348e-05
1.70842e-05
1.67787e-05
1.64282e-05
1.60478e-05
1.56515e-05
1.52469e-05
1.48315e-05
1.44067e-05
1.39745e-05
1.35414e-05
1.31253e-05
1.27225e-05
1.23431e-05
1.19891e-05
1.16709e-05
1.13991e-05
1.11849e-05
1.10478e-05
1.10201e-05
1.11377e-05
1.12095e-05
1.1635e-05
1.17243e-05
1.16902e-05
1.16325e-05
1.1521e-05
1.13989e-05
1.12669e-05
1.11128e-05
1.09315e-05
1.07228e-05
1.04902e-05
1.02373e-05
9.97015e-06
9.68975e-06
9.39651e-06
9.09432e-06
8.78694e-06
8.48332e-06
8.19381e-06
7.92873e-06
7.69104e-06
7.49424e-06
7.35141e-06
9.43295e-06
9.38799e-06
9.44728e-06
9.55773e-06
9.73972e-06
9.96883e-06
1.02293e-05
1.05257e-05
1.0833e-05
1.11476e-05
1.14651e-05
1.17352e-05
1.18815e-05
1.20949e-05
1.23628e-05
1.26338e-05
1.29027e-05
1.31361e-05
1.34001e-05
1.3608e-05
1.38551e-05
1.41403e-05
1.44772e-05
1.48582e-05
1.52773e-05
1.57261e-05
1.62021e-05
1.6695e-05
1.71976e-05
1.77018e-05
1.81995e-05
1.86859e-05
1.91554e-05
1.96004e-05
2.00109e-05
2.03823e-05
2.07057e-05
2.09699e-05
2.11528e-05
2.12298e-05
2.12506e-05
2.12624e-05
2.12925e-05
2.14188e-05
2.15709e-05
2.16568e-05
2.16746e-05
2.15928e-05
2.14222e-05
2.14686e-05
2.17767e-05
2.21186e-05
2.19087e-05
2.1654e-05
2.1385e-05
2.10626e-05
2.06932e-05
2.02875e-05
1.98553e-05
1.9403e-05
1.89379e-05
1.84645e-05
1.79869e-05
1.75104e-05
1.70412e-05
1.65919e-05
1.61696e-05
1.57803e-05
1.54269e-05
1.51199e-05
1.48724e-05
1.47005e-05
1.46236e-05
1.46547e-05
1.47788e-05
1.48842e-05
1.4844e-05
1.46871e-05
1.45682e-05
1.44306e-05
1.42492e-05
1.40526e-05
1.38397e-05
1.3609e-05
1.33561e-05
1.30832e-05
1.2793e-05
1.24875e-05
1.21706e-05
1.18464e-05
1.15166e-05
1.11859e-05
1.08612e-05
1.05493e-05
1.02586e-05
9.99951e-06
9.77519e-06
9.60123e-06
9.49323e-06
1.20433e-05
1.21024e-05
1.2302e-05
1.25585e-05
1.28976e-05
1.32842e-05
1.36887e-05
1.41044e-05
1.45158e-05
1.48409e-05
1.50049e-05
1.52069e-05
1.54522e-05
1.57384e-05
1.60592e-05
1.63827e-05
1.67058e-05
1.701e-05
1.7331e-05
1.76362e-05
1.79789e-05
1.83599e-05
1.87858e-05
1.92494e-05
1.97456e-05
2.02661e-05
2.08064e-05
2.13566e-05
2.19092e-05
2.24555e-05
2.29868e-05
2.3495e-05
2.39725e-05
2.44117e-05
2.48035e-05
2.51431e-05
2.54221e-05
2.56324e-05
2.57653e-05
2.58198e-05
2.58469e-05
2.59e-05
2.59869e-05
2.61299e-05
2.62657e-05
2.6334e-05
2.6339e-05
2.6279e-05
2.62054e-05
2.62898e-05
2.65403e-05
2.629e-05
2.59464e-05
2.56489e-05
2.53143e-05
2.49324e-05
2.45123e-05
2.40619e-05
2.35875e-05
2.30945e-05
2.2591e-05
2.20849e-05
2.15818e-05
2.10887e-05
2.06122e-05
2.01621e-05
1.97471e-05
1.93713e-05
1.90384e-05
1.87569e-05
1.85367e-05
1.83857e-05
1.83038e-05
1.82701e-05
1.82322e-05
1.8114e-05
1.78642e-05
1.76383e-05
1.74474e-05
1.72233e-05
1.69674e-05
1.66951e-05
1.6408e-05
1.61081e-05
1.57938e-05
1.54682e-05
1.51334e-05
1.47918e-05
1.44469e-05
1.41036e-05
1.3765e-05
1.34356e-05
1.31228e-05
1.28318e-05
1.25688e-05
1.23447e-05
1.21633e-05
1.20454e-05
1.20119e-05
1.51996e-05
1.53903e-05
1.57569e-05
1.61692e-05
1.66447e-05
1.71398e-05
1.76363e-05
1.79293e-05
1.816e-05
1.84064e-05
1.86832e-05
1.89912e-05
1.93292e-05
1.96909e-05
2.00674e-05
2.04488e-05
2.08321e-05
2.12094e-05
2.16008e-05
2.19983e-05
2.24306e-05
2.28978e-05
2.34013e-05
2.39348e-05
2.44932e-05
2.50682e-05
2.56543e-05
2.62415e-05
2.68222e-05
2.73865e-05
2.79251e-05
2.84287e-05
2.88893e-05
2.92998e-05
2.96532e-05
2.99457e-05
3.01717e-05
3.03301e-05
3.04226e-05
3.04598e-05
3.05055e-05
3.05841e-05
3.0714e-05
3.08607e-05
3.09717e-05
3.10186e-05
3.10169e-05
3.09788e-05
3.09611e-05
3.09779e-05
3.05877e-05
3.01532e-05
2.97989e-05
2.94543e-05
2.90648e-05
2.86371e-05
2.81779e-05
2.76937e-05
2.71906e-05
2.66748e-05
2.61548e-05
2.56391e-05
2.5134e-05
2.46468e-05
2.4183e-05
2.37495e-05
2.33525e-05
2.29951e-05
2.26793e-05
2.24075e-05
2.21803e-05
2.19915e-05
2.18239e-05
2.16462e-05
2.14211e-05
2.11321e-05
2.08115e-05
2.05382e-05
2.0269e-05
1.99696e-05
1.965e-05
1.93176e-05
1.89765e-05
1.86294e-05
1.8278e-05
1.79256e-05
1.75746e-05
1.72283e-05
1.68898e-05
1.65627e-05
1.62504e-05
1.59565e-05
1.56884e-05
1.54507e-05
1.52475e-05
1.50893e-05
1.49812e-05
1.49541e-05
1.50376e-05
1.89752e-05
1.92802e-05
1.97423e-05
2.02339e-05
2.06569e-05
2.09149e-05
2.12033e-05
2.1538e-05
2.18857e-05
2.22496e-05
2.26351e-05
2.30419e-05
2.34662e-05
2.39013e-05
2.43399e-05
2.47818e-05
2.52293e-05
2.56794e-05
2.61442e-05
2.66244e-05
2.71348e-05
2.76738e-05
2.82403e-05
2.88276e-05
2.94307e-05
3.00414e-05
3.06535e-05
3.12564e-05
3.18424e-05
3.24017e-05
3.29242e-05
3.34009e-05
3.38247e-05
3.419e-05
3.44921e-05
3.47302e-05
3.49021e-05
3.50146e-05
3.50769e-05
3.50997e-05
3.51581e-05
3.52515e-05
3.54082e-05
3.55389e-05
3.5616e-05
3.56157e-05
3.55026e-05
3.53733e-05
3.51446e-05
3.47286e-05
3.42164e-05
3.37995e-05
3.34302e-05
3.30364e-05
3.26054e-05
3.21445e-05
3.1658e-05
3.11529e-05
3.06366e-05
3.01157e-05
2.95975e-05
2.90894e-05
2.85979e-05
2.81284e-05
2.76846e-05
2.72692e-05
2.68853e-05
2.65343e-05
2.62136e-05
2.59182e-05
2.56403e-05
2.53668e-05
2.50815e-05
2.47695e-05
2.44254e-05
2.40625e-05
2.37125e-05
2.33868e-05
2.3055e-05
2.27082e-05
2.23521e-05
2.19915e-05
2.16315e-05
2.12752e-05
2.09253e-05
2.05849e-05
2.02576e-05
1.99476e-05
1.96573e-05
1.93881e-05
1.91402e-05
1.89154e-05
1.87213e-05
1.85646e-05
1.84499e-05
1.83839e-05
1.83711e-05
1.84527e-05
1.86742e-05
2.31983e-05
2.35241e-05
2.36778e-05
2.38819e-05
2.41737e-05
2.45468e-05
2.49517e-05
2.5399e-05
2.58586e-05
2.63316e-05
2.68175e-05
2.73149e-05
2.78195e-05
2.83262e-05
2.88311e-05
2.93337e-05
2.98447e-05
3.03632e-05
3.08962e-05
3.1446e-05
3.20195e-05
3.26138e-05
3.3226e-05
3.38495e-05
3.44788e-05
3.51054e-05
3.57229e-05
3.6321e-05
3.68918e-05
3.74256e-05
3.79124e-05
3.83445e-05
3.8717e-05
3.90265e-05
3.92705e-05
3.94522e-05
3.95724e-05
3.96466e-05
3.96881e-05
3.97101e-05
3.97624e-05
3.98751e-05
4.00146e-05
3.99797e-05
3.97505e-05
3.95313e-05
3.92944e-05
3.90025e-05
3.85961e-05
3.80891e-05
3.76293e-05
3.72309e-05
3.6827e-05
3.63932e-05
3.59343e-05
3.54527e-05
3.49521e-05
3.44402e-05
3.39255e-05
3.34136e-05
3.29094e-05
3.24188e-05
3.19471e-05
3.14976e-05
3.1071e-05
3.06661e-05
3.02831e-05
2.99213e-05
2.95738e-05
2.92313e-05
2.88844e-05
2.8525e-05
2.81503e-05
2.77662e-05
2.73818e-05
2.70043e-05
2.66386e-05
2.62802e-05
2.5926e-05
2.55737e-05
2.52231e-05
2.48794e-05
2.45487e-05
2.42329e-05
2.39338e-05
2.36525e-05
2.33929e-05
2.31597e-05
2.2956e-05
2.27834e-05
2.26321e-05
2.25008e-05
2.23961e-05
2.23254e-05
2.23025e-05
2.23294e-05
2.2405e-05
2.25673e-05
2.28454e-05
2.69826e-05
2.70087e-05
2.72108e-05
2.75245e-05
2.79273e-05
2.84103e-05
2.89254e-05
2.94794e-05
3.00424e-05
3.06144e-05
3.11912e-05
3.17708e-05
3.23495e-05
3.29243e-05
3.34936e-05
3.40586e-05
3.46268e-05
3.52048e-05
3.57952e-05
3.6399e-05
3.70187e-05
3.76505e-05
3.82901e-05
3.89308e-05
3.95673e-05
4.01909e-05
4.0795e-05
4.13698e-05
4.19074e-05
4.23984e-05
4.28337e-05
4.32086e-05
4.3521e-05
4.37696e-05
4.39534e-05
4.40805e-05
4.41539e-05
4.41947e-05
4.42207e-05
4.42407e-05
4.42928e-05
4.42565e-05
4.39656e-05
4.36273e-05
4.32825e-05
4.29532e-05
4.26098e-05
4.22104e-05
4.17549e-05
4.12909e-05
4.08727e-05
4.04579e-05
4.00185e-05
3.95595e-05
3.90865e-05
3.85987e-05
3.80991e-05
3.75955e-05
3.70957e-05
3.66037e-05
3.61217e-05
3.56539e-05
3.52037e-05
3.47724e-05
3.43583e-05
3.39576e-05
3.35691e-05
3.31915e-05
3.28161e-05
3.24337e-05
3.204e-05
3.16366e-05
3.12334e-05
3.0845e-05
3.04771e-05
3.01205e-05
2.97674e-05
2.94246e-05
2.91046e-05
2.88008e-05
2.85088e-05
2.82331e-05
2.79804e-05
2.77547e-05
2.75564e-05
2.73788e-05
2.72237e-05
2.70926e-05
2.69877e-05
2.69198e-05
2.6867e-05
2.6823e-05
2.67911e-05
2.67671e-05
2.67512e-05
2.67821e-05
2.68541e-05
2.69979e-05
2.69286e-05
3.05694e-05
3.06779e-05
3.09725e-05
3.13874e-05
3.18929e-05
3.24781e-05
3.30952e-05
3.37471e-05
3.44035e-05
3.50635e-05
3.5721e-05
3.63742e-05
3.70198e-05
3.76572e-05
3.82858e-05
3.89078e-05
3.95271e-05
4.01512e-05
4.07844e-05
4.14251e-05
4.2073e-05
4.27236e-05
4.33725e-05
4.40127e-05
4.46389e-05
4.52426e-05
4.58169e-05
4.63528e-05
4.68427e-05
4.72775e-05
4.76502e-05
4.79602e-05
4.8209e-05
4.83965e-05
4.85216e-05
4.85981e-05
4.86302e-05
4.86402e-05
4.86458e-05
4.84106e-05
4.81139e-05
4.77379e-05
4.73072e-05
4.68913e-05
4.65005e-05
4.61101e-05
4.57061e-05
4.52769e-05
4.4841e-05
4.4417e-05
4.3997e-05
4.35548e-05
4.3094e-05
4.26265e-05
4.21553e-05
4.1678e-05
4.1197e-05
4.07191e-05
4.02496e-05
3.97899e-05
3.93399e-05
3.8902e-05
3.84784e-05
3.8069e-05
3.76708e-05
3.72796e-05
3.68957e-05
3.652e-05
3.61456e-05
3.57652e-05
3.53796e-05
3.49976e-05
3.46332e-05
3.42986e-05
3.39896e-05
3.36874e-05
3.3389e-05
3.31195e-05
3.28947e-05
3.2698e-05
3.25175e-05
3.2351e-05
3.22053e-05
3.20908e-05
3.20114e-05
3.19491e-05
3.19009e-05
3.18595e-05
3.18113e-05
3.17526e-05
3.17005e-05
3.16454e-05
3.1591e-05
3.15205e-05
3.11988e-05
3.09034e-05
3.06491e-05
3.04814e-05
3.04343e-05
3.43776e-05
3.45607e-05
3.49398e-05
3.54473e-05
3.60461e-05
3.67245e-05
3.74334e-05
3.81729e-05
3.89115e-05
3.9648e-05
4.03755e-05
4.10927e-05
4.17963e-05
4.2488e-05
4.31671e-05
4.38364e-05
4.44988e-05
4.51557e-05
4.58146e-05
4.64747e-05
4.71335e-05
4.77859e-05
4.84274e-05
4.90508e-05
4.96514e-05
5.02203e-05
5.07513e-05
5.12359e-05
5.16666e-05
5.20352e-05
5.23381e-05
5.25801e-05
5.27658e-05
5.28956e-05
5.2966e-05
5.29968e-05
5.29902e-05
5.27037e-05
5.23279e-05
5.19042e-05
5.14437e-05
5.09728e-05
5.05263e-05
5.00968e-05
4.96781e-05
4.92566e-05
4.88349e-05
4.84148e-05
4.80014e-05
4.75847e-05
4.71478e-05
4.66916e-05
4.62302e-05
4.57737e-05
4.5323e-05
4.48755e-05
4.44334e-05
4.40027e-05
4.35855e-05
4.31786e-05
4.27794e-05
4.2389e-05
4.20089e-05
4.16387e-05
4.12755e-05
4.09163e-05
4.05648e-05
4.02277e-05
3.99038e-05
3.95883e-05
3.92795e-05
3.89887e-05
3.87271e-05
3.8499e-05
3.82893e-05
3.80729e-05
3.78565e-05
3.76882e-05
3.75882e-05
3.75278e-05
3.74769e-05
3.74246e-05
3.73674e-05
3.7302e-05
3.72396e-05
3.7187e-05
3.7137e-05
3.70781e-05
3.69795e-05
3.65728e-05
3.61677e-05
3.57717e-05
3.5396e-05
3.50494e-05
3.47426e-05
3.4484e-05
3.42757e-05
3.41576e-05
3.41674e-05
3.83894e-05
3.86379e-05
3.90928e-05
3.96826e-05
4.03649e-05
4.11259e-05
4.19152e-05
4.27304e-05
4.35394e-05
4.43404e-05
4.51266e-05
4.58969e-05
4.66485e-05
4.73841e-05
4.81028e-05
4.8807e-05
4.94988e-05
5.01788e-05
5.08486e-05
5.15108e-05
5.2164e-05
5.28025e-05
5.34216e-05
5.40142e-05
5.45756e-05
5.50977e-05
5.55745e-05
5.59981e-05
5.63613e-05
5.66567e-05
5.68859e-05
5.70597e-05
5.71851e-05
5.72622e-05
5.7282e-05
5.72719e-05
5.70692e-05
5.6494e-05
5.59554e-05
5.54342e-05
5.49201e-05
5.44405e-05
5.39963e-05
5.35554e-05
5.31169e-05
5.2685e-05
5.22671e-05
5.18617e-05
5.14578e-05
5.10383e-05
5.05988e-05
5.01539e-05
4.97173e-05
4.92958e-05
4.88891e-05
4.84932e-05
4.8111e-05
4.77504e-05
4.74137e-05
4.70893e-05
4.67709e-05
4.64586e-05
4.61532e-05
4.58549e-05
4.55615e-05
4.52707e-05
4.49896e-05
4.47296e-05
4.44975e-05
4.42953e-05
4.41115e-05
4.39561e-05
4.38367e-05
4.37491e-05
4.36647e-05
4.35439e-05
4.33892e-05
4.32541e-05
4.31829e-05
4.31514e-05
4.31212e-05
4.30741e-05
4.29955e-05
4.27626e-05
4.23111e-05
4.18656e-05
4.14252e-05
4.09995e-05
4.05879e-05
4.01938e-05
3.98209e-05
3.94599e-05
3.91174e-05
3.88044e-05
3.85256e-05
3.8299e-05
3.81284e-05
3.8052e-05
3.81125e-05
4.2591e-05
4.28939e-05
4.34142e-05
4.40755e-05
4.48302e-05
4.56622e-05
4.65198e-05
4.73985e-05
4.82655e-05
4.91188e-05
4.99519e-05
5.07639e-05
5.15522e-05
5.23193e-05
5.30649e-05
5.37907e-05
5.44978e-05
5.51863e-05
5.58569e-05
5.65089e-05
5.71409e-05
5.77512e-05
5.83345e-05
5.88841e-05
5.93955e-05
5.98612e-05
6.02756e-05
6.06315e-05
6.09215e-05
6.1139e-05
6.12932e-05
6.14016e-05
6.14686e-05
6.1499e-05
6.14697e-05
6.14246e-05
6.12384e-05
6.0639e-05
6.00581e-05
5.9511e-05
5.899e-05
5.85082e-05
5.80566e-05
5.76024e-05
5.71548e-05
5.67266e-05
5.63227e-05
5.59347e-05
5.55449e-05
5.514e-05
5.47266e-05
5.43223e-05
5.39386e-05
5.35809e-05
5.32457e-05
5.29253e-05
5.26205e-05
5.23418e-05
5.21008e-05
5.18776e-05
5.16612e-05
5.14508e-05
5.12468e-05
5.1049e-05
5.08562e-05
5.06647e-05
5.04816e-05
5.03152e-05
5.0161e-05
5.00196e-05
4.99038e-05
4.98171e-05
4.97643e-05
4.97395e-05
4.9706e-05
4.96101e-05
4.9438e-05
4.90997e-05
4.86478e-05
4.81879e-05
4.77374e-05
4.72942e-05
4.68567e-05
4.64274e-05
4.60152e-05
4.56111e-05
4.52133e-05
4.48267e-05
4.4452e-05
4.40907e-05
4.3745e-05
4.34107e-05
4.30927e-05
4.28027e-05
4.25441e-05
4.2341e-05
4.21986e-05
4.21549e-05
4.22593e-05
4.69729e-05
4.73176e-05
4.7892e-05
4.86131e-05
4.94286e-05
5.03196e-05
5.12331e-05
5.21628e-05
5.30755e-05
5.39688e-05
5.48365e-05
5.56779e-05
5.64906e-05
5.72764e-05
5.80358e-05
5.87693e-05
5.94777e-05
6.01607e-05
6.08182e-05
6.14494e-05
6.20524e-05
6.26233e-05
6.31592e-05
6.36555e-05
6.41082e-05
6.45103e-05
6.48569e-05
6.51413e-05
6.53552e-05
6.54932e-05
6.5573e-05
6.56172e-05
6.56326e-05
6.56143e-05
6.55443e-05
6.54642e-05
6.53918e-05
6.52205e-05
6.47333e-05
6.42714e-05
6.38216e-05
6.33767e-05
6.29262e-05
6.24775e-05
6.20418e-05
6.16363e-05
6.12624e-05
6.09094e-05
6.05586e-05
6.01986e-05
5.98392e-05
5.9499e-05
5.91891e-05
5.8915e-05
5.86704e-05
5.84402e-05
5.82181e-05
5.8005e-05
5.78034e-05
5.76153e-05
5.74362e-05
5.72672e-05
5.71104e-05
5.6965e-05
5.68266e-05
5.66905e-05
5.65606e-05
5.64364e-05
5.62377e-05
5.58249e-05
5.54285e-05
5.50456e-05
5.46604e-05
5.42791e-05
5.39002e-05
5.35207e-05
5.31427e-05
5.27566e-05
5.23703e-05
5.19768e-05
5.15873e-05
5.12e-05
5.08151e-05
5.0434e-05
5.00605e-05
4.96928e-05
4.93292e-05
4.89724e-05
4.86237e-05
4.82841e-05
4.79554e-05
4.76358e-05
4.73299e-05
4.70501e-05
4.68007e-05
4.66092e-05
4.64824e-05
4.64599e-05
4.65961e-05
5.15321e-05
5.19049e-05
5.25214e-05
5.32901e-05
5.41546e-05
5.50924e-05
5.60496e-05
5.70178e-05
5.79638e-05
5.88852e-05
5.97751e-05
6.06337e-05
6.14581e-05
6.225e-05
6.30098e-05
6.37378e-05
6.44341e-05
6.50983e-05
6.573e-05
6.63284e-05
6.68917e-05
6.74165e-05
6.79003e-05
6.83381e-05
6.87264e-05
6.90604e-05
6.93364e-05
6.95488e-05
6.96877e-05
6.97484e-05
6.97618e-05
6.97458e-05
6.97078e-05
6.96419e-05
6.95348e-05
6.94148e-05
6.93028e-05
6.91932e-05
6.90908e-05
6.89724e-05
6.88365e-05
6.86402e-05
6.82462e-05
6.78575e-05
6.74818e-05
6.71351e-05
6.68179e-05
6.65199e-05
6.62259e-05
6.59243e-05
6.56221e-05
6.53361e-05
6.50785e-05
6.48545e-05
6.46565e-05
6.44683e-05
6.42781e-05
6.40747e-05
6.36712e-05
6.32018e-05
6.27349e-05
6.22826e-05
6.18592e-05
6.14766e-05
6.11043e-05
6.07476e-05
6.0408e-05
6.00635e-05
5.97198e-05
5.93796e-05
5.905e-05
5.87291e-05
5.84122e-05
5.80992e-05
5.77898e-05
5.74788e-05
5.71675e-05
5.68528e-05
5.65347e-05
5.62062e-05
5.58732e-05
5.55346e-05
5.51927e-05
5.48482e-05
5.45037e-05
5.41603e-05
5.3817e-05
5.34755e-05
5.31374e-05
5.28037e-05
5.24766e-05
5.21553e-05
5.18453e-05
5.15595e-05
5.13043e-05
5.11091e-05
5.09828e-05
5.09672e-05
5.11212e-05
5.62739e-05
5.666e-05
5.73057e-05
5.811e-05
5.90117e-05
5.99846e-05
6.09736e-05
6.19687e-05
6.29365e-05
6.38745e-05
6.47751e-05
6.56388e-05
6.64629e-05
6.72485e-05
6.79963e-05
6.87063e-05
6.93785e-05
7.00123e-05
7.06074e-05
7.1163e-05
7.16778e-05
7.21489e-05
7.25741e-05
7.29492e-05
7.3272e-05
7.35383e-05
7.37457e-05
7.38899e-05
7.396e-05
7.39546e-05
7.39089e-05
7.38352e-05
7.3745e-05
7.36355e-05
7.34961e-05
7.33437e-05
7.31911e-05
7.30287e-05
7.28642e-05
7.26826e-05
7.24833e-05
7.22669e-05
7.20377e-05
7.18038e-05
7.15728e-05
7.13362e-05
7.10898e-05
7.08137e-05
7.05112e-05
7.01965e-05
6.98702e-05
6.95317e-05
6.91882e-05
6.88334e-05
6.84531e-05
6.80598e-05
6.76594e-05
6.72604e-05
6.685e-05
6.6451e-05
6.60654e-05
6.57009e-05
6.53643e-05
6.5058e-05
6.47662e-05
6.44907e-05
6.42266e-05
6.39634e-05
6.37038e-05
6.34489e-05
6.32005e-05
6.29571e-05
6.27181e-05
6.24823e-05
6.22442e-05
6.20013e-05
6.17572e-05
6.15076e-05
6.12485e-05
6.09733e-05
6.06844e-05
6.03811e-05
6.00665e-05
5.9742e-05
5.94097e-05
5.90723e-05
5.87295e-05
5.83832e-05
5.80351e-05
5.76865e-05
5.73403e-05
5.69969e-05
5.66623e-05
5.6351e-05
5.60715e-05
5.58541e-05
5.57105e-05
5.56852e-05
5.58419e-05
6.12125e-05
6.15967e-05
6.22589e-05
6.30868e-05
6.40146e-05
6.50118e-05
6.60221e-05
6.70338e-05
6.80131e-05
6.89572e-05
6.9858e-05
7.07163e-05
7.15291e-05
7.22978e-05
7.30229e-05
7.37045e-05
7.43427e-05
7.49369e-05
7.54871e-05
7.59928e-05
7.64531e-05
7.6866e-05
7.72296e-05
7.75407e-05
7.77982e-05
7.79985e-05
7.81401e-05
7.82199e-05
7.82328e-05
7.81822e-05
7.80909e-05
7.797e-05
7.78359e-05
7.7686e-05
7.75147e-05
7.73304e-05
7.71428e-05
7.69375e-05
7.67214e-05
7.6489e-05
7.62406e-05
7.59779e-05
7.57047e-05
7.54264e-05
7.51475e-05
7.48639e-05
7.45679e-05
7.425e-05
7.39179e-05
7.35833e-05
7.32481e-05
7.29128e-05
7.25796e-05
7.22456e-05
7.19048e-05
7.15648e-05
7.12292e-05
7.0905e-05
7.0584e-05
7.02798e-05
6.99944e-05
6.9733e-05
6.94955e-05
6.92828e-05
6.9084e-05
6.88998e-05
6.87249e-05
6.85534e-05
6.83856e-05
6.82211e-05
6.80592e-05
6.78983e-05
6.77382e-05
6.75765e-05
6.7403e-05
6.72231e-05
6.70371e-05
6.68387e-05
6.66221e-05
6.63811e-05
6.61165e-05
6.58279e-05
6.55189e-05
6.51914e-05
6.4848e-05
6.44922e-05
6.41248e-05
6.37482e-05
6.33646e-05
6.29759e-05
6.25857e-05
6.21954e-05
6.18123e-05
6.14525e-05
6.11268e-05
6.08658e-05
6.06847e-05
6.06312e-05
6.07737e-05
6.63729e-05
6.67398e-05
6.74059e-05
6.82467e-05
6.91907e-05
7.0203e-05
7.1226e-05
7.22458e-05
7.32284e-05
7.41704e-05
7.50632e-05
7.59076e-05
7.6701e-05
7.74447e-05
7.81394e-05
7.87855e-05
7.93832e-05
7.99323e-05
8.04331e-05
8.08858e-05
8.12899e-05
8.16441e-05
8.19475e-05
8.21978e-05
8.23946e-05
8.25357e-05
8.26207e-05
8.26485e-05
8.26187e-05
8.25362e-05
8.24165e-05
8.22697e-05
8.21067e-05
8.1928e-05
8.17319e-05
8.15222e-05
8.13027e-05
8.10659e-05
8.08154e-05
8.05505e-05
8.02726e-05
7.99838e-05
7.96876e-05
7.93873e-05
7.90855e-05
7.87815e-05
7.84707e-05
7.81498e-05
7.78252e-05
7.75068e-05
7.71971e-05
7.68971e-05
7.66073e-05
7.63272e-05
7.60543e-05
7.5794e-05
7.55466e-05
7.53184e-05
7.5104e-05
7.49102e-05
7.47374e-05
7.4588e-05
7.44593e-05
7.43505e-05
7.42545e-05
7.41701e-05
7.40929e-05
7.40187e-05
7.39458e-05
7.38724e-05
7.37965e-05
7.37162e-05
7.36312e-05
7.35273e-05
7.34085e-05