/*--------------------------------*- C++ -*----------------------------------*\
| =========                 |                                                 |
| \\      /  F ield         | OpenFOAM: The Open Source CFD Toolbox           |
|  \\    /   O peration     | Version:  5.0                                   |
|   \\  /    A nd           | Web:      www.OpenFOAM.org                      |
|    \\/     M anipulation  |                                                 |
\*---------------------------------------------------------------------------*/
FoamFile
{
    version     2.0;
    format      ascii;
    class       volScalarField;
    location    "20000";
    object      omega;
}
// * * * * * * * * * * * * * * * * * * * * * * * * * * * * * * * * * * * * * //

dimensions      [0 0 -1 0 0 0 0];

internalField   nonuniform List<scalar> 
14751
(
100
99.9971
99.9884
99.9869
99.9954
100.003
100.008
100.014
100.02
100.025
100.031
100.035
100.037
100.039
100.041
100.043
100.045
100.047
100.048
100.05
100.05
100.051
100.052
100.053
100.053
100.054
100.055
100.055
100.056
100.056
100.056
100.057
100.057
100.058
100.058
100.055
100.048
100.041
100.034
100.021
99.9991
99.9801
99.9652
99.9568
99.9545
99.9522
99.9499
99.9478
99.9456
99.9435
99.9415
99.9415
99.9436
99.9457
99.9478
99.95
99.9523
99.9546
99.9569
99.9653
99.9799
99.9989
100.02
100.034
100.041
100.048
100.054
100.057
100.055
100.052
100.05
100.048
100.046
100.044
100.041
100.034
100.022
100.005
99.9859
99.9739
99.9677
99.9618
99.9559
99.9536
99.9549
99.9562
99.9575
99.9588
99.9601
99.9614
99.9626
99.9642
99.9666
99.969
99.9718
99.9758
99.981
99.9875
99.9957
17.2757
17.2622
17.2394
17.2076
17.168
17.1234
17.074
17.0187
16.9604
16.9007
16.8402
16.7783
16.717
16.6561
16.5959
16.5364
16.4783
16.4217
16.3669
16.3143
16.2642
16.2168
16.1722
16.1303
16.0912
16.0549
16.0212
15.9901
15.9614
15.935
15.9109
15.8888
15.8688
15.8506
15.8339
15.8184
15.8038
15.7901
15.7771
15.7642
15.7514
15.74
15.7304
15.7228
15.7166
15.7109
15.7061
15.7023
15.6999
15.699
15.699
15.6997
15.7009
15.702
15.7034
15.7055
15.7082
15.7115
15.7155
15.7214
15.7293
15.739
15.7502
15.7618
15.7742
15.788
15.8031
15.8195
15.8378
15.8583
15.8812
15.9065
15.9348
15.9667
16.0035
16.0439
16.087
16.1308
16.1759
16.2229
16.2717
16.3227
16.3767
16.4332
16.4916
16.5512
16.6116
16.6728
16.7353
16.798
16.8608
16.9173
16.978
17.036
17.0906
17.1393
17.184
17.217
17.238
6.45219
6.38786
6.35648
6.33037
6.3057
6.28278
6.25515
6.2082
6.15533
6.10664
6.05775
6.00198
5.94987
5.89508
5.8419
5.78707
5.73518
5.6861
5.63651
5.58922
5.54351
5.49895
5.4557
5.41425
5.37489
5.33827
5.30443
5.27328
5.24477
5.21887
5.19538
5.17408
5.15474
5.13712
5.11979
5.10505
5.09154
5.07817
5.0637
5.0497
5.03688
5.02564
5.01697
5.01133
5.0055
4.99783
4.99221
4.98658
4.98291
4.98311
4.98453
4.98605
4.9876
4.98752
4.98758
4.98862
4.99033
4.99182
4.99346
4.99674
5.00199
5.00828
5.01596
5.02442
5.03403
5.04501
5.055
5.06997
5.0873
5.10611
5.12694
5.14935
5.1735
5.1974
5.229
5.27135
5.32839
5.38252
5.43148
5.47249
5.50405
5.54079
5.58443
5.63245
5.68166
5.73183
5.7796
5.82849
5.8778
5.92547
5.97366
5.98804
6.03897
6.09153
6.14059
6.18007
6.23712
6.27494
6.30883
3.50729
3.46633
3.43739
3.41992
3.42017
3.43117
3.44505
3.41001
3.36951
3.34849
3.32876
3.29154
3.26881
3.23271
3.19778
3.15181
3.11444
3.08854
3.05458
3.02819
3.00207
2.97274
2.93927
2.90339
2.86645
2.83096
2.7974
2.76593
2.73702
2.71099
2.68754
2.66613
2.64628
2.62744
2.60678
2.59036
2.57593
2.56054
2.53889
2.52031
2.50604
2.49585
2.49289
2.49753
2.49574
2.48457
2.48234
2.475
2.4743
2.48097
2.48414
2.48535
2.48428
2.4801
2.48151
2.48731
2.49446
2.49991
2.50533
2.51605
2.52792
2.53931
2.55255
2.56481
2.57815
2.59267
2.59512
2.61796
2.64379
2.66583
2.68621
2.70187
2.71116
2.70402
2.71391
2.74848
2.81775
2.86511
2.89244
2.90193
2.88004
2.88105
2.89598
2.91607
2.93986
2.96903
2.98949
3.02363
3.0513
3.07253
3.09196
3.06597
3.1068
3.15885
3.20743
3.23211
3.29565
3.32971
3.37643
2.22015
2.18203
2.16201
2.15566
2.16618
2.18986
2.22886
2.19135
2.1572
2.15484
2.15217
2.13172
2.14515
2.12958
2.107
2.05613
2.01957
2.00807
1.97497
1.96623
1.96277
1.95486
1.93711
1.91176
1.88141
1.85028
1.81905
1.7884
1.75936
1.73277
1.70849
1.68595
1.66432
1.64292
1.61968
1.60026
1.58319
1.5649
1.53694
1.51644
1.50353
1.49815
1.50612
1.52529
1.5271
1.51098
1.51227
1.50238
1.51493
1.53752
1.54302
1.54202
1.52892
1.51187
1.51301
1.52392
1.53458
1.54224
1.55125
1.57448
1.59427
1.6111
1.63133
1.64732
1.66634
1.69015
1.68435
1.71474
1.75211
1.784
1.81038
1.82373
1.8187
1.78541
1.79293
1.84589
1.91104
1.91526
1.88733
1.88005
1.84087
1.84092
1.84573
1.8412
1.84539
1.85922
1.85738
1.89546
1.91638
1.92559
1.93555
1.92825
1.94654
1.98743
2.03114
2.05276
2.09628
2.10229
2.14145
1.51537
1.4717
1.45373
1.44386
1.45081
1.47602
1.52851
1.47339
1.44373
1.44524
1.4451
1.43997
1.47309
1.46549
1.44362
1.38703
1.35277
1.34344
1.30509
1.29915
1.30181
1.30472
1.29908
1.28555
1.26637
1.24503
1.22186
1.19799
1.17447
1.15226
1.13155
1.11204
1.09306
1.07422
1.05493
1.03792
1.02219
1.00535
0.983019
0.969616
0.962148
0.961777
0.972759
0.988916
0.98573
0.972207
0.974346
0.966704
0.988008
1.0155
1.02023
1.01501
0.999118
0.980236
0.983728
0.994712
1.0036
1.00987
1.01941
1.04633
1.06834
1.08637
1.10606
1.12088
1.14241
1.17206
1.17059
1.1949
1.22992
1.26785
1.3053
1.32946
1.33288
1.31421
1.35267
1.47768
1.52691
1.42548
1.32656
1.32272
1.29218
1.30583
1.30602
1.29431
1.29372
1.29753
1.28931
1.32033
1.33621
1.34359
1.36366
1.36218
1.36433
1.38563
1.4121
1.4275
1.45676
1.44999
1.47565
1.05509
1.02933
1.01435
1.00325
1.00624
1.02352
1.06328
1.0104
0.989831
0.994983
0.994651
0.996573
1.0273
1.01955
0.998703
0.948623
0.924366
0.916788
0.883665
0.87801
0.876928
0.878432
0.875034
0.867049
0.855798
0.843058
0.828516
0.81317
0.797632
0.782578
0.768287
0.754724
0.741461
0.72838
0.715492
0.703759
0.692548
0.68048
0.666046
0.659455
0.656557
0.65885
0.668073
0.677358
0.672602
0.66507
0.669148
0.666071
0.685303
0.705053
0.705993
0.698464
0.686292
0.674809
0.679141
0.687605
0.694157
0.699316
0.708635
0.729924
0.748287
0.764381
0.779416
0.791641
0.812957
0.838626
0.844237
0.860709
0.885007
0.915693
0.950437
0.976533
0.992074
1.00402
1.06798
1.2506
1.29312
1.09658
0.957235
0.96943
0.950209
0.973686
0.972241
0.966197
0.964321
0.961923
0.951887
0.97207
0.980455
0.985706
1.00312
1.00104
1.00128
1.00921
1.01947
1.02691
1.0382
1.03936
1.05017
0.764819
0.750221
0.73884
0.731197
0.729965
0.73426
0.740009
0.71657
0.707023
0.708025
0.703909
0.704103
0.710697
0.702991
0.688312
0.666472
0.654209
0.650889
0.625194
0.623875
0.620667
0.619837
0.616423
0.610771
0.60349
0.595615
0.586391
0.576651
0.566698
0.556967
0.547673
0.538879
0.530278
0.521917
0.513885
0.506538
0.499473
0.491869
0.482801
0.480206
0.479794
0.482876
0.490239
0.496765
0.493075
0.488971
0.495691
0.494693
0.5114
0.525085
0.524222
0.517846
0.509877
0.503896
0.507065
0.513266
0.517705
0.52141
0.529055
0.544683
0.557456
0.569663
0.580707
0.590009
0.608853
0.626069
0.637222
0.651343
0.66831
0.689832
0.713722
0.734741
0.754313
0.766377
0.807406
0.866912
0.869244
0.791308
0.749101
0.744644
0.737649
0.762093
0.75896
0.756117
0.754076
0.751354
0.747527
0.7535
0.755129
0.756014
0.759887
0.7569
0.755822
0.758037
0.761634
0.764577
0.768344
0.768701
0.770137
0.578146
0.569283
0.56059
0.554327
0.550373
0.547814
0.54373
0.531573
0.525389
0.522927
0.5192
0.517296
0.516164
0.509882
0.500547
0.490059
0.481926
0.477
0.464595
0.463699
0.461527
0.459901
0.456815
0.452604
0.447582
0.442197
0.436169
0.429887
0.423535
0.417333
0.411421
0.405861
0.400494
0.39539
0.390691
0.386453
0.382527
0.378577
0.374656
0.374118
0.375375
0.378598
0.384131
0.386629
0.385767
0.385711
0.388087
0.390472
0.403044
0.41259
0.410612
0.406247
0.402174
0.400672
0.403656
0.406403
0.409086
0.412457
0.419091
0.429908
0.43853
0.447137
0.455264
0.463514
0.478649
0.49121
0.501692
0.513434
0.526545
0.54167
0.557616
0.572045
0.584985
0.597639
0.619618
0.635758
0.631098
0.605547
0.593166
0.590583
0.590302
0.600188
0.599618
0.598781
0.59739
0.595435
0.593501
0.594221
0.593293
0.592055
0.59121
0.588431
0.587041
0.587123
0.587914
0.588474
0.589049
0.587878
0.585348
0.45239
0.446506
0.439638
0.434008
0.42893
0.423946
0.41812
0.410389
0.405397
0.40193
0.398477
0.395819
0.393169
0.388521
0.382561
0.37652
0.370559
0.367073
0.361683
0.36005
0.358077
0.356146
0.353567
0.350471
0.346988
0.343296
0.339332
0.335276
0.331232
0.327319
0.323627
0.320199
0.316982
0.314063
0.31152
0.309342
0.307556
0.306118
0.305331
0.306099
0.30792
0.310534
0.313736
0.31538
0.315904
0.317023
0.31848
0.32175
0.329427
0.334563
0.334186
0.332369
0.33094
0.331911
0.334767
0.336808
0.338984
0.342179
0.34724
0.353986
0.360052
0.366264
0.372596
0.3796
0.38914
0.39768
0.405742
0.414483
0.423855
0.433929
0.444037
0.453486
0.462362
0.471526
0.482166
0.488263
0.486583
0.479247
0.475953
0.475186
0.476418
0.480389
0.480556
0.48029
0.479441
0.478148
0.476812
0.476005
0.474443
0.472664
0.470928
0.468843
0.467486
0.466763
0.466367
0.465714
0.46478
0.462785
0.459064
0.363943
0.359636
0.354053
0.348971
0.343847
0.338558
0.333154
0.327542
0.323332
0.320003
0.317008
0.314313
0.311539
0.308101
0.303979
0.300083
0.296388
0.293761
0.290832
0.289181
0.287487
0.285765
0.283772
0.281554
0.27916
0.276672
0.274087
0.271497
0.268961
0.26655
0.264327
0.262316
0.260543
0.259043
0.257883
0.257055
0.256596
0.256529
0.256983
0.258247
0.260035
0.26201
0.264066
0.265351
0.26631
0.267612
0.269378
0.272336
0.276833
0.279982
0.280696
0.280698
0.281128
0.282439
0.284524
0.28599
0.287849
0.290497
0.294167
0.298535
0.302813
0.307286
0.312019
0.317255
0.323378
0.329226
0.335072
0.341274
0.347753
0.354475
0.361124
0.367535
0.373762
0.380064
0.386065
0.389505
0.3898
0.387924
0.387246
0.387573
0.388909
0.390729
0.391028
0.390928
0.390384
0.389484
0.388426
0.387377
0.385966
0.384382
0.382759
0.381162
0.379944
0.378962
0.378085
0.376905
0.37542
0.373179
0.369526
0.299336
0.295981
0.291403
0.286953
0.282356
0.277644
0.273175
0.268876
0.265362
0.262393
0.259693
0.257104
0.254512
0.25184
0.249027
0.246409
0.243994
0.242094
0.240246
0.238856
0.2375
0.236139
0.234679
0.233137
0.231528
0.229897
0.228251
0.226645
0.225113
0.223702
0.222454
0.22141
0.220593
0.220025
0.21974
0.219736
0.220039
0.220663
0.221644
0.223056
0.224678
0.226193
0.227626
0.228747
0.229846
0.23126
0.233073
0.235541
0.23853
0.240874
0.242046
0.242721
0.243684
0.244673
0.245888
0.247005
0.248487
0.250492
0.253038
0.25593
0.258913
0.262089
0.265522
0.269261
0.27334
0.27739
0.281546
0.285906
0.290414
0.295038
0.299641
0.304189
0.308668
0.313038
0.316832
0.319151
0.319857
0.319603
0.319784
0.320451
0.321499
0.322448
0.322693
0.322615
0.322207
0.321561
0.320792
0.319891
0.318753
0.317482
0.316165
0.314931
0.31388
0.31288
0.311875
0.310584
0.309046
0.306926
0.303829
0.250715
0.248079
0.244415
0.240701
0.236859
0.232956
0.229364
0.225853
0.222798
0.220131
0.217671
0.215371
0.213192
0.211122
0.209157
0.20734
0.205693
0.204317
0.203044
0.201966
0.20094
0.199935
0.198912
0.197877
0.196834
0.195808
0.194809
0.193872
0.193018
0.192286
0.191708
0.191315
0.191125
0.19115
0.191404
0.191882
0.192596
0.193538
0.19471
0.19612
0.197507
0.198789
0.199871
0.2009
0.202067
0.203503
0.205213
0.20728
0.209506
0.211366
0.212479
0.213093
0.213851
0.214454
0.215173
0.215994
0.217086
0.218512
0.220247
0.222197
0.224279
0.226526
0.228962
0.231588
0.234382
0.237232
0.240195
0.243294
0.2465
0.249785
0.253081
0.256361
0.259556
0.262535
0.264974
0.266499
0.267124
0.267326
0.267715
0.268328
0.269017
0.269507
0.269626
0.269509
0.269223
0.268759
0.268163
0.267434
0.266544
0.265564
0.264548
0.263603
0.262744
0.261861
0.260946
0.259798
0.258487
0.25674
0.254276
0.213473
0.211469
0.20862
0.205611
0.202426
0.19915
0.196119
0.193152
0.19051
0.188162
0.186038
0.184105
0.182344
0.180751
0.179319
0.178025
0.176859
0.175854
0.174947
0.174148
0.173408
0.172705
0.172023
0.171363
0.170726
0.17013
0.16958
0.169105
0.168721
0.168453
0.168329
0.16837
0.168586
0.168981
0.169556
0.170301
0.171218
0.172281
0.173479
0.174825
0.176043
0.177167
0.178044
0.17905
0.180245
0.18162
0.183157
0.18488
0.186565
0.187933
0.188649
0.188976
0.189423
0.189765
0.190195
0.190765
0.191523
0.1925
0.193666
0.194985
0.196427
0.198002
0.199717
0.201561
0.203516
0.205548
0.207676
0.209901
0.212206
0.214564
0.216924
0.219241
0.221432
0.223374
0.224891
0.22584
0.226283
0.22653
0.226846
0.227248
0.227617
0.227815
0.227819
0.227713
0.227466
0.227082
0.226599
0.226016
0.225336
0.224612
0.223862
0.223181
0.222547
0.22188
0.221186
0.220318
0.219364
0.218075
0.216233
0.184623
0.183107
0.180818
0.178291
0.175597
0.172803
0.170202
0.167698
0.16546
0.163463
0.161684
0.160098
0.158691
0.157453
0.156368
0.155427
0.154583
0.153849
0.153199
0.152631
0.152122
0.151661
0.151238
0.150855
0.150512
0.150222
0.14999
0.149836
0.149773
0.149821
0.150001
0.150325
0.150795
0.15141
0.152166
0.153044
0.154041
0.155117
0.15626
0.157465
0.158595
0.159538
0.160399
0.161387
0.162557
0.163794
0.165037
0.166389
0.167536
0.168387
0.168685
0.168863
0.16908
0.169245
0.169494
0.169862
0.170361
0.171006
0.171779
0.172668
0.17366
0.174758
0.17596
0.177259
0.178639
0.180088
0.181606
0.18319
0.184824
0.186477
0.188108
0.189665
0.191076
0.192267
0.19316
0.193705
0.193959
0.194104
0.194259
0.194439
0.194567
0.194601
0.194551
0.194415
0.194171
0.193842
0.193461
0.193021
0.192544
0.192064
0.191553
0.191128
0.190745
0.190355
0.189949
0.189419
0.188861
0.188005
0.186713
0.161772
0.160564
0.158649
0.156488
0.154198
0.151843
0.149643
0.147545
0.145672
0.144002
0.142531
0.141237
0.140111
0.139136
0.138299
0.137587
0.136974
0.136443
0.135987
0.135602
0.135276
0.135001
0.134774
0.134596
0.134465
0.134393
0.134383
0.13445
0.134605
0.134863
0.13524
0.13574
0.136357
0.137088
0.137929
0.138855
0.139859
0.140896
0.14195
0.143021
0.14402
0.144897
0.145715
0.146635
0.147684
0.148726
0.149653
0.15054
0.151256
0.151621
0.151735
0.151803
0.151872
0.151933
0.152063
0.152277
0.152584
0.152992
0.153495
0.154087
0.154761
0.15552
0.156355
0.157261
0.158225
0.159236
0.160288
0.161374
0.16248
0.163581
0.164638
0.165608
0.166446
0.167118
0.167598
0.167862
0.167945
0.167958
0.16796
0.167968
0.167963
0.167923
0.167837
0.167696
0.167468
0.167209
0.166949
0.16667
0.166398
0.166158
0.165875
0.165706
0.165572
0.165453
0.16533
0.165122
0.164892
0.164364
0.163414
0.143248
0.142241
0.14065
0.13883
0.136904
0.134931
0.133081
0.13133
0.129768
0.128379
0.127165
0.126108
0.1252
0.124423
0.123766
0.123218
0.122768
0.122396
0.122088
0.121845
0.121661
0.121529
0.121447
0.121417
0.121437
0.121516
0.121656
0.121871
0.122167
0.122559
0.123055
0.123651
0.124337
0.125109
0.125969
0.126885
0.12785
0.128823
0.12979
0.130731
0.131592
0.132349
0.13307
0.133864
0.134735
0.135561
0.136203
0.136682
0.137021
0.137155
0.137177
0.137167
0.137154
0.13715
0.137196
0.137301
0.137473
0.137716
0.138032
0.138415
0.138862
0.139373
0.139938
0.140549
0.141194
0.141863
0.142548
0.143238
0.143933
0.144609
0.145232
0.145774
0.146214
0.146542
0.146749
0.146821
0.146774
0.14669
0.146594
0.146511
0.146458
0.146393
0.14631
0.146212
0.146032
0.145875
0.145758
0.145639
0.145554
0.14553
0.14546
0.145512
0.145582
0.145666
0.145716
0.145697
0.145632
0.145308
0.144587
0.128011
0.127193
0.125882
0.124359
0.122747
0.121096
0.119543
0.118078
0.116775
0.115619
0.114614
0.113745
0.113006
0.112381
0.111861
0.111437
0.111101
0.110847
0.110655
0.110522
0.110443
0.110416
0.110438
0.110511
0.110634
0.110813
0.111052
0.111359
0.111741
0.11221
0.112769
0.113403
0.1141
0.11486
0.11569
0.116555
0.117453
0.118331
0.119173
0.11997
0.120679
0.121307
0.121911
0.122592
0.123283
0.123882
0.124251
0.124444
0.124563
0.124581
0.124548
0.124493
0.124437
0.124392
0.124382
0.124413
0.124493
0.124624
0.124813
0.125047
0.12533
0.125658
0.126019
0.126401
0.126794
0.127193
0.127589
0.127974
0.128358
0.128731
0.129049
0.129295
0.129476
0.129588
0.129624
0.129579
0.129455
0.129335
0.129204
0.129119
0.129059
0.129004
0.128953
0.128923
0.128822
0.128782
0.128797
0.12881
0.128854
0.128937
0.129023
0.129178
0.129367
0.129558
0.129712
0.129799
0.129817
0.12962
0.129088
0.115357
0.114705
0.11363
0.11236
0.11101
0.109625
0.10832
0.10709
0.105998
0.105032
0.104194
0.103474
0.102867
0.102359
0.101944
0.101615
0.101366
0.101191
0.101084
0.101032
0.10103
0.101076
0.10117
0.101312
0.101501
0.101743
0.102039
0.102398
0.102826
0.103331
0.103909
0.10454
0.10521
0.105918
0.106686
0.107469
0.108256
0.109004
0.109701
0.110344
0.110915
0.111429
0.111933
0.112492
0.112973
0.113354
0.113559
0.113612
0.113619
0.113582
0.113519
0.113446
0.113367
0.113293
0.113244
0.113227
0.113247
0.113308
0.113412
0.113539
0.113705
0.113902
0.11411
0.114314
0.114506
0.114698
0.114874
0.115043
0.11522
0.115403
0.115527
0.115582
0.115612
0.115602
0.115543
0.115436
0.115273
0.115159
0.115057
0.114987
0.114942
0.114907
0.114884
0.114878
0.114858
0.114874
0.114937
0.115026
0.115146
0.115286
0.115449
0.115664
0.115913
0.116163
0.116399
0.116571
0.116671
0.116587
0.116212
0.10474
0.104232
0.103352
0.102293
0.101159
0.099993
0.0988905
0.0978529
0.096931
0.096117
0.0954131
0.0948105
0.0943066
0.0938898
0.0935559
0.0932991
0.0931144
0.0929978
0.0929429
0.0929442
0.0929959
0.0930917
0.0932306
0.0934143
0.0936416
0.0939168
0.0942417
0.0946218
0.0950642
0.0955766
0.0961446
0.0967412
0.0973595
0.0979932
0.0986811
0.0993582
0.100003
0.100598
0.101149
0.101654
0.102114
0.102537
0.102949
0.103356
0.103652
0.103911
0.104038
0.104036
0.103999
0.103941
0.103867
0.103787
0.103693
0.103596
0.10352
0.103472
0.103455
0.103473
0.103522
0.103583
0.103675
0.103788
0.103891
0.103962
0.104003
0.104048
0.104069
0.104096
0.10414
0.104216
0.104224
0.104165
0.104112
0.104037
0.103925
0.103785
0.103613
0.103473
0.103351
0.103275
0.103213
0.103175
0.103163
0.103173
0.103191
0.103242
0.103337
0.103465
0.103628
0.103822
0.10405
0.104321
0.104624
0.104931
0.105233
0.105475
0.105646
0.105656
0.105406
0.0957377
0.0953523
0.0946325
0.093747
0.0927906
0.0918029
0.0908657
0.0899832
0.0891984
0.0885061
0.0879086
0.0873987
0.0869751
0.0866293
0.0863571
0.0861542
0.0860164
0.0859403
0.0859206
0.0859523
0.0860311
0.0861548
0.0863199
0.086525
0.0867691
0.0870554
0.0873855
0.0877639
0.0881987
0.0886961
0.0892329
0.0897796
0.0903272
0.0908824
0.0914713
0.0920387
0.0925568
0.0930238
0.0934481
0.0938417
0.0942077
0.0945507
0.0948775
0.0951686
0.0953773
0.0955298
0.0956224
0.0956197
0.0955774
0.0955222
0.0954493
0.0953632
0.095258
0.0951423
0.0950504
0.0949842
0.0949427
0.0949275
0.0949433
0.0949584
0.0950021
0.0950608
0.0950883
0.0950608
0.0949965
0.0949508
0.0948757
0.0948097
0.0947514
0.094694
0.0946028
0.0944783
0.0943443
0.0941917
0.0940253
0.0938526
0.0936743
0.0935148
0.0933724
0.0932728
0.093202
0.0931655
0.0931627
0.0931924
0.0932504
0.093345
0.093481
0.0936551
0.0938661
0.0941132
0.0943957
0.094717
0.0950673
0.0954235
0.0957776
0.0960767
0.0963085
0.0963981
0.0962526
0.0880212
0.0877379
0.0871495
0.0864065
0.085595
0.0847524
0.0839494
0.0831921
0.0825176
0.0819219
0.0814086
0.0809716
0.0806104
0.0803189
0.0800929
0.079929
0.079824
0.0797745
0.0797762
0.0798247
0.0799163
0.0800487
0.0802187
0.0804262
0.08067
0.080951
0.0812693
0.0816283
0.0820377
0.0825025
0.082988
0.0834736
0.0839506
0.0844256
0.0849144
0.0853837
0.0858053
0.086184
0.0865167
0.0868319
0.0871288
0.087407
0.0876663
0.0878804
0.0880311
0.0881347
0.0881908
0.0882039
0.0881876
0.0881486
0.0880856
0.0880033
0.0878962
0.0877694
0.0876713
0.0875916
0.0875255
0.0874692
0.0874448
0.0874117
0.0873821
0.0873419
0.0872725
0.0871566
0.0870352
0.0868989
0.0867429
0.0865959
0.086447
0.0862906
0.0861185
0.085932
0.0857379
0.0855392
0.0853398
0.0851518
0.0849747
0.0848142
0.0846773
0.0845836
0.0845294
0.0845175
0.0845449
0.084611
0.0847141
0.0848552
0.0850367
0.085257
0.085515
0.0858099
0.0861393
0.086504
0.0868954
0.0872937
0.0876892
0.0880355
0.0883187
0.0884735
0.0884149
0.0813336
0.081135
0.0806539
0.0800276
0.0793339
0.0786092
0.0779147
0.0772579
0.0766713
0.0761523
0.0757053
0.0753251
0.0750119
0.0747609
0.0745685
0.0744317
0.0743478
0.0743139
0.0743261
0.0743805
0.0744739
0.0746039
0.0747679
0.0749653
0.0751941
0.075455
0.0757472
0.0760731
0.0764422
0.0768564
0.0772808
0.077703
0.078111
0.0785064
0.0788999
0.0792734
0.0796114
0.0799236
0.0802032
0.0804661
0.0807109
0.0809347
0.0811303
0.0812889
0.0813998
0.0814702
0.0815035
0.0815223
0.0815237
0.0814937
0.081435
0.0813532
0.0812458
0.0811269
0.0810194
0.0809151
0.0808123
0.0807041
0.0806085
0.080504
0.0803919
0.0802639
0.0801124
0.0799335
0.0797447
0.0795424
0.0793306
0.0791207
0.0789086
0.0786938
0.0784761
0.0782575
0.0780399
0.0778276
0.077632
0.0774587
0.0773012
0.0771642
0.0770559
0.0769908
0.0769698
0.0769949
0.0770624
0.0771713
0.0773201
0.0775073
0.0777336
0.0779979
0.0782992
0.0786363
0.0790061
0.0794081
0.0798345
0.0802677
0.0806968
0.081082
0.081408
0.0816164
0.0816289
0.0754734
0.0753444
0.0749508
0.0744195
0.0738215
0.073192
0.0725847
0.0720083
0.0714915
0.0710328
0.0706372
0.0703007
0.0700235
0.0698018
0.0696324
0.0695129
0.0694406
0.0694131
0.0694269
0.0694785
0.069565
0.0696841
0.0698332
0.0700114
0.0702165
0.0704489
0.0707074
0.0709935
0.0713108
0.0716567
0.0720117
0.0723657
0.0727032
0.0730258
0.0733377
0.0736306
0.0738948
0.0741436
0.0743711
0.0745822
0.0747753
0.0749477
0.0750948
0.0752117
0.0752925
0.0753403
0.0753629
0.075371
0.0753595
0.0753194
0.0752517
0.0751597
0.0750455
0.0749172
0.0747858
0.0746483
0.0745045
0.0743495
0.0741941
0.0740285
0.0738524
0.0736611
0.0734545
0.0732311
0.0730006
0.0727618
0.0725188
0.0722772
0.0720375
0.0718016
0.0715718
0.0713504
0.0711391
0.0709427
0.0707754
0.0706312
0.0705077
0.0704088
0.070342
0.070318
0.0703389
0.0704063
0.0705169
0.0706693
0.0708617
0.0710918
0.0713596
0.0716638
0.0720034
0.0723768
0.072781
0.0732144
0.07367
0.0741316
0.074588
0.0750051
0.0753661
0.0756181
0.0756885
0.0702825
0.0702098
0.0698872
0.0694329
0.0689121
0.0683591
0.0678214
0.0673087
0.0668464
0.0664344
0.066078
0.0657737
0.0655222
0.0653201
0.0651647
0.0650538
0.0649851
0.0649563
0.0649643
0.0650059
0.0650783
0.0651794
0.0653065
0.0654586
0.0656332
0.0658301
0.0660479
0.0662863
0.0665453
0.0668213
0.0671026
0.0673809
0.0676471
0.0678999
0.0681402
0.0683644
0.0685691
0.0687607
0.0689363
0.0690962
0.0692389
0.0693623
0.0694637
0.0695405
0.06959
0.0696127
0.0696138
0.0695984
0.0695636
0.0695036
0.0694186
0.0693102
0.0691815
0.0690364
0.0688809
0.068714
0.0685375
0.0683479
0.0681519
0.067946
0.0677311
0.067505
0.0672699
0.0670256
0.0667779
0.0665271
0.0662767
0.0660302
0.0657904
0.0655602
0.0653423
0.065139
0.0649514
0.064794
0.0646638
0.0645588
0.0644777
0.064424
0.0644038
0.0644252
0.0644904
0.0646006
0.064753
0.0649461
0.065178
0.0654463
0.0657504
0.0660891
0.0664611
0.0668647
0.0672969
0.0677559
0.0682349
0.0687189
0.0691969
0.0696393
0.0700283
0.0703153
0.0704324
0.065637
0.065609
0.0653435
0.0649509
0.0644918
0.0639995
0.0635166
0.0630535
0.062633
0.062256
0.0619278
0.0616459
0.0614107
0.0612195
0.0610699
0.0609599
0.0608873
0.0608502
0.0608457
0.0608709
0.0609231
0.0610002
0.0610996
0.06122
0.0613587
0.0615151
0.0616873
0.0618739
0.0620728
0.0622805
0.0624905
0.0626973
0.0628956
0.0630832
0.0632594
0.0634227
0.0635714
0.0637084
0.0638324
0.0639423
0.0640365
0.0641135
0.0641718
0.0642097
0.0642259
0.0642203
0.0641952
0.0641526
0.0640916
0.0640089
0.0639044
0.063779
0.0636351
0.0634748
0.0633018
0.0631158
0.0629196
0.0627115
0.0624955
0.0622712
0.0620404
0.0618027
0.0615606
0.061315
0.0610694
0.0608253
0.0605858
0.0603539
0.0601328
0.0599257
0.0597353
0.0595643
0.0594155
0.0593001
0.0592122
0.0591509
0.0591155
0.0591087
0.0591351
0.0592013
0.059309
0.0594591
0.0596496
0.0598787
0.0601447
0.0604452
0.0607795
0.0611462
0.061544
0.0619714
0.0624253
0.0629038
0.0634002
0.0639006
0.0643946
0.064856
0.0652662
0.0655803
0.0657344
0.0614407
0.0614471
0.0612267
0.0608828
0.0604723
0.0600274
0.0595867
0.0591611
0.0587712
0.058419
0.0581094
0.0578405
0.057613
0.0574244
0.0572727
0.0571561
0.0570728
0.0570208
0.0569975
0.0570005
0.057027
0.0570751
0.0571421
0.0572265
0.0573257
0.0574386
0.0575629
0.0576968
0.0578376
0.0579824
0.0581274
0.0582694
0.0584054
0.0585333
0.058652
0.0587605
0.0588577
0.0589445
0.0590201
0.0590834
0.0591331
0.0591683
0.0591876
0.05919
0.0591749
0.0591419
0.0590917
0.0590249
0.0589413
0.0588392
0.0587188
0.0585803
0.0584257
0.0582563
0.0580747
0.0578813
0.0576785
0.0574663
0.0572472
0.0570222
0.056793
0.0565607
0.0563272
0.0560943
0.0558646
0.0556403
0.0554241
0.0552191
0.0550282
0.0548543
0.0546999
0.0545666
0.0544647
0.0543925
0.0543481
0.0543311
0.0543409
0.0543791
0.0544493
0.0545567
0.0547027
0.0548882
0.0551114
0.0553708
0.0556647
0.055991
0.0563488
0.0567368
0.0571538
0.0575982
0.0580673
0.0585589
0.0590666
0.0595775
0.0600817
0.0605556
0.0609805
0.0613144
0.0614966
0.05762
0.0576515
0.0574658
0.0571597
0.0567866
0.0563779
0.0559686
0.0555702
0.0552014
0.0548646
0.0545648
0.0543007
0.0540727
0.0538789
0.0537176
0.0535874
0.0534865
0.0534134
0.0533659
0.0533414
0.0533377
0.0533527
0.053384
0.0534299
0.0534877
0.0535563
0.0536332
0.0537167
0.0538042
0.0538933
0.0539819
0.0540679
0.0541495
0.0542254
0.0542941
0.0543549
0.0544069
0.0544502
0.0544838
0.0545071
0.0545192
0.0545192
0.0545064
0.0544797
0.0544388
0.0543832
0.0543132
0.0542287
0.0541295
0.0540149
0.0538849
0.0537397
0.0535809
0.0534096
0.0532278
0.0530364
0.0528373
0.0526314
0.0524207
0.0522066
0.0519908
0.0517748
0.0515606
0.05135
0.0511456
0.0509495
0.0507645
0.0505933
0.0504388
0.0503034
0.0501894
0.0500989
0.0500408
0.0500106
0.0500082
0.0500331
0.0500846
0.0501637
0.0502729
0.0504164
0.0505955
0.0508109
0.051061
0.0513447
0.0516604
0.0520061
0.052381
0.0527839
0.0532135
0.0536685
0.0541465
0.054645
0.0551579
0.0556735
0.0561821
0.0566623
0.0570953
0.0574418
0.0576441
0.0541197
0.0541683
0.0540086
0.0537308
0.0533857
0.0530039
0.0526171
0.0522373
0.0518814
0.0515523
0.0512547
0.0509878
0.050752
0.050546
0.0503686
0.0502185
0.0500945
0.0499952
0.0499188
0.0498632
0.0498261
0.0498058
0.0497999
0.0498068
0.0498239
0.04985
0.0498828
0.0499208
0.0499617
0.0500038
0.0500455
0.0500856
0.0501227
0.0501558
0.0501837
0.0502058
0.0502212
0.0502295
0.05023
0.050222
0.0502051
0.0501786
0.0501417
0.0500937
0.0500342
0.0499628
0.0498795
0.049784
0.0496762
0.0495556
0.0494222
0.0492764
0.0491191
0.0489518
0.048776
0.0485932
0.048405
0.0482125
0.0480177
0.047822
0.0476272
0.0474348
0.0472467
0.0470648
0.0468914
0.0467287
0.046579
0.0464448
0.0463286
0.0462325
0.0461584
0.0461105
0.0460921
0.0461004
0.0461355
0.0461974
0.0462852
0.0463992
0.0465415
0.0467152
0.0469214
0.0471608
0.0474323
0.0477346
0.0480664
0.048426
0.0488124
0.0492245
0.0496613
0.0501214
0.0506026
0.0511025
0.0516152
0.0521299
0.0526374
0.053118
0.0535531
0.0539057
0.0541207
0.0508995
0.0509583
0.0508171
0.0505601
0.0502354
0.049873
0.0495018
0.0491339
0.0487847
0.0484571
0.0481556
0.0478798
0.0476305
0.0474068
0.0472081
0.0470335
0.0468825
0.0467538
0.0466461
0.0465575
0.0464864
0.0464308
0.0463887
0.0463585
0.046338
0.0463259
0.0463202
0.0463196
0.0463221
0.0463263
0.0463311
0.0463354
0.0463382
0.0463386
0.0463357
0.0463286
0.0463166
0.0462993
0.0462757
0.0462455
0.0462083
0.0461633
0.04611
0.0460477
0.045976
0.0458945
0.0458033
0.045702
0.0455907
0.0454691
0.0453371
0.0451953
0.0450446
0.0448863
0.0447222
0.0445535
0.044382
0.0442088
0.0440356
0.0438639
0.0436954
0.0435314
0.0433736
0.0432239
0.0430842
0.0429565
0.0428428
0.0427452
0.0426657
0.0426063
0.0425681
0.0425582
0.0425737
0.0426144
0.0426808
0.0427727
0.0428894
0.0430311
0.0431992
0.0433961
0.0436229
0.0438803
0.0441673
0.044483
0.0448259
0.0451945
0.0455879
0.0460049
0.0464446
0.0469056
0.0473859
0.0478829
0.0483912
0.0489008
0.0494026
0.0498785
0.0503103
0.0506632
0.0508846
0.0479296
0.0479932
0.0478647
0.0476226
0.0473128
0.0469642
0.0466038
0.0462433
0.0458969
0.0455666
0.045257
0.0449681
0.0447013
0.0444563
0.0442332
0.0440319
0.043852
0.043693
0.0435538
0.0434331
0.0433292
0.0432407
0.0431657
0.0431027
0.0430497
0.0430053
0.042968
0.0429364
0.0429089
0.0428842
0.0428612
0.042839
0.0428167
0.0427934
0.0427681
0.04274
0.0427085
0.0426729
0.0426325
0.0425868
0.0425356
0.0424781
0.042414
0.0423428
0.0422639
0.0421773
0.042083
0.041981
0.0418714
0.041754
0.0416289
0.0414968
0.0413584
0.0412152
0.0410685
0.0409198
0.0407704
0.0406215
0.0404744
0.0403306
0.0401914
0.0400581
0.0399322
0.0398152
0.0397088
0.0396146
0.0395345
0.0394701
0.0394232
0.0393956
0.0393885
0.0394077
0.0394498
0.0395152
0.0396047
0.0397183
0.0398555
0.0400164
0.040202
0.0404144
0.0406544
0.0409228
0.041219
0.0415421
0.0418908
0.0422637
0.0426598
0.0430781
0.0435175
0.0439764
0.044453
0.0449445
0.0454458
0.0459475
0.0464406
0.0469084
0.0473331
0.0476818
0.0479045
0.0451867
0.0452516
0.0451317
0.0449006
0.0446019
0.0442639
0.0439114
0.0435563
0.0432111
0.0428759
0.0425557
0.0422514
0.0419648
0.0416969
0.0414483
0.0412196
0.041011
0.0408225
0.0406534
0.0405027
0.040369
0.0402511
0.0401473
0.0400561
0.0399757
0.039905
0.0398423
0.0397863
0.0397356
0.0396889
0.0396453
0.0396036
0.0395629
0.0395224
0.0394812
0.0394385
0.0393935
0.0393457
0.0392945
0.0392394
0.0391803
0.0391166
0.0390481
0.0389742
0.0388948
0.0388099
0.0387194
0.0386235
0.0385223
0.0384159
0.0383045
0.0381884
0.0380685
0.0379459
0.0378219
0.0376975
0.037574
0.0374523
0.0373336
0.037219
0.0371097
0.0370067
0.0369114
0.0368249
0.0367487
0.0366843
0.036633
0.0365965
0.0365761
0.0365736
0.0365906
0.0366306
0.0366912
0.0367733
0.0368775
0.0370041
0.037153
0.0373243
0.0375187
0.0377381
0.0379834
0.0382553
0.0385534
0.0388771
0.0392254
0.0395969
0.0399909
0.0404061
0.0408414
0.0412954
0.0417659
0.0422501
0.0427428
0.0432353
0.0437185
0.0441766
0.0445923
0.0449344
0.0451553
0.0426484
0.0427129
0.0425993
0.0423769
0.0420874
0.0417582
0.0414125
0.0410623
0.0407188
0.0403766
0.0400431
0.0397203
0.0394115
0.0391186
0.0388434
0.038587
0.0383503
0.0381338
0.0379369
0.0377591
0.0375993
0.0374562
0.0373283
0.0372142
0.0371122
0.0370211
0.0369393
0.0368656
0.0367985
0.0367367
0.0366792
0.036625
0.0365732
0.0365227
0.0364728
0.0364227
0.0363717