/*--------------------------------*- C++ -*----------------------------------*\
| =========                 |                                                 |
| \\      /  F ield         | OpenFOAM: The Open Source CFD Toolbox           |
|  \\    /   O peration     | Version:  5.0                                   |
|   \\  /    A nd           | Web:      www.OpenFOAM.org                      |
|    \\/     M anipulation  |                                                 |
\*---------------------------------------------------------------------------*/
FoamFile
{
    version     2.0;
    format      ascii;
    class       volScalarField;
    location    "20000";
    object      p;
}
// * * * * * * * * * * * * * * * * * * * * * * * * * * * * * * * * * * * * * //

dimensions      [0 2 -2 0 0 0 0];

internalField   nonuniform List<scalar> 
14751
(
8.13418e-13
2.6626e-06
6.24598e-06
1.00584e-05
1.43847e-05
1.90973e-05
2.41031e-05
2.9386e-05
3.47796e-05
4.02809e-05
4.58127e-05
5.13231e-05
5.67771e-05
6.21227e-05
6.72989e-05
7.22469e-05
7.69431e-05
8.13869e-05
8.55442e-05
8.94122e-05
9.30186e-05
9.63553e-05
9.94303e-05
0.000102235
0.000104783
0.000107072
0.000109119
0.000110926
0.000112505
0.000113867
0.000115023
0.000115985
0.000116763
0.000117367
0.000117805
0.000118082
0.000118208
0.000118182
0.000117994
0.000117651
0.000117172
0.000116569
0.000115869
0.000115087
0.000114188
0.000113139
0.000111967
0.000110688
0.000109349
0.000108001
0.000106582
0.000105043
0.000103368
0.000101541
9.95898e-05
9.75479e-05
9.54074e-05
9.3155e-05
9.07876e-05
8.83355e-05
8.58105e-05
8.32022e-05
8.0508e-05
7.77273e-05
7.48737e-05
7.19666e-05
6.89675e-05
6.5864e-05
6.27e-05
5.94963e-05
5.62643e-05
5.29986e-05
4.96861e-05
4.63335e-05
4.30616e-05
4.00373e-05
3.7172e-05
3.41362e-05
3.08448e-05
2.75028e-05
2.42084e-05
2.09467e-05
1.77665e-05
1.46365e-05
1.158e-05
8.63732e-06
5.81496e-06
3.1741e-06
7.80875e-07
-1.35985e-06
-3.18677e-06
-4.68317e-06
-5.84441e-06
-6.54567e-06
-6.82438e-06
-6.55607e-06
-5.75892e-06
-4.4172e-06
-2.80442e-06
9.375e-10
2.66355e-06
6.24658e-06
1.00588e-05
1.43849e-05
1.90974e-05
2.4103e-05
2.93856e-05
3.4779e-05
4.02802e-05
4.58119e-05
5.13223e-05
5.67763e-05
6.21217e-05
6.72978e-05
7.22456e-05
7.69418e-05
8.13855e-05
8.55427e-05
8.94107e-05
9.30171e-05
9.63539e-05
9.94289e-05
0.000102234
0.000104781
0.000107071
0.000109118
0.000110924
0.000112504
0.000113866
0.000115022
0.000115984
0.000116762
0.000117366
0.000117804
0.000118081
0.000118207
0.000118182
0.000117994
0.00011765
0.000117171
0.000116568
0.000115868
0.000115087
0.000114187
0.000113138
0.000111967
0.000110688
0.000109349
0.000108001
0.000106582
0.000105043
0.000103368
0.00010154
9.95894e-05
9.75474e-05
9.54069e-05
9.31545e-05
9.07871e-05
8.83351e-05
8.58102e-05
8.3202e-05
8.05078e-05
7.77273e-05
7.48738e-05
7.19667e-05
6.89677e-05
6.58643e-05
6.27005e-05
5.94972e-05
5.62654e-05
5.3e-05
4.96879e-05
4.63358e-05
4.30646e-05
4.00408e-05
3.71755e-05
3.41396e-05
3.08481e-05
2.75061e-05
2.42119e-05
2.09501e-05
1.777e-05
1.46399e-05
1.15834e-05
8.64062e-06
5.81818e-06
3.17731e-06
7.84085e-07
-1.35672e-06
-3.18378e-06
-4.68041e-06
-5.84192e-06
-6.54336e-06
-6.82222e-06
-6.55417e-06
-5.75727e-06
-4.41569e-06
-2.80304e-06
1.84957e-09
2.66368e-06
6.24632e-06
1.0058e-05
1.43836e-05
1.90958e-05
2.41011e-05
2.93836e-05
3.47769e-05
4.02782e-05
4.581e-05
5.13205e-05
5.67747e-05
6.21202e-05
6.72964e-05
7.22442e-05
7.69404e-05
8.13841e-05
8.55413e-05
8.94094e-05
9.30159e-05
9.63527e-05
9.94278e-05
0.000102232
0.00010478
0.00010707
0.000109117
0.000110923
0.000112502
0.000113865
0.000115021
0.000115983
0.000116762
0.000117366
0.000117803
0.000118081
0.000118207
0.000118181
0.000117993
0.000117649
0.00011717
0.000116567
0.000115867
0.000115086
0.000114186
0.000113137
0.000111966
0.000110688
0.000109349
0.000108001
0.000106582
0.000105043
0.000103368
0.00010154
9.9589e-05
9.7547e-05
9.54064e-05
9.3154e-05
9.07866e-05
8.83346e-05
8.58099e-05
8.32018e-05
8.05077e-05
7.77274e-05
7.4874e-05
7.19671e-05
6.89681e-05
6.58649e-05
6.27014e-05
5.94983e-05
5.6267e-05
5.30019e-05
4.96902e-05
4.63388e-05
4.30683e-05
4.00452e-05
3.71804e-05
3.41444e-05
3.08527e-05
2.75105e-05
2.42162e-05
2.09544e-05
1.77742e-05
1.4644e-05
1.15872e-05
8.64429e-06
5.82163e-06
3.18061e-06
7.87333e-07
-1.35365e-06
-3.18092e-06
-4.67783e-06
-5.83968e-06
-6.54123e-06
-6.82028e-06
-6.55245e-06
-5.75578e-06
-4.41426e-06
-2.80252e-06
2.37736e-09
2.6627e-06
6.245e-06
1.0056e-05
1.4381e-05
1.90929e-05
2.4098e-05
2.93806e-05
3.4774e-05
4.02755e-05
4.58078e-05
5.13187e-05
5.67732e-05
6.2119e-05
6.72954e-05
7.22435e-05
7.69397e-05
8.13836e-05
8.5541e-05
8.94091e-05
9.30157e-05
9.63525e-05
9.94276e-05
0.000102232
0.00010478
0.000107069
0.000109116
0.000110923
0.000112502
0.000113864
0.00011502
0.000115983
0.000116761
0.000117365
0.000117803
0.00011808
0.000118206
0.00011818
0.000117992
0.000117649
0.000117169
0.000116567
0.000115867
0.000115085
0.000114186
0.000113137
0.000111966
0.000110687
0.000109349
0.000108001
0.000106582
0.000105044
0.000103368
0.00010154
9.95887e-05
9.75466e-05
9.54061e-05
9.31536e-05
9.07862e-05
8.83344e-05
8.58098e-05
8.32019e-05
8.0508e-05
7.77278e-05
7.48746e-05
7.19679e-05
6.89691e-05
6.5866e-05
6.27028e-05
5.95001e-05
5.62691e-05
5.30046e-05
4.96935e-05
4.63427e-05
4.30727e-05
4.00502e-05
3.71862e-05
3.41505e-05
3.08584e-05
2.75158e-05
2.42214e-05
2.09594e-05
1.77792e-05
1.46487e-05
1.15916e-05
8.64839e-06
5.82543e-06
3.18413e-06
7.90621e-07
-1.35074e-06
-3.17845e-06
-4.67561e-06
-5.83774e-06
-6.53937e-06
-6.81879e-06
-6.55122e-06
-5.75479e-06
-4.41316e-06
-2.80316e-06
2.7136e-09
2.6607e-06
6.24287e-06
1.00535e-05
1.43778e-05
1.90896e-05
2.40939e-05
2.93762e-05
3.47701e-05
4.02724e-05
4.58052e-05
5.13167e-05
5.67718e-05
6.21179e-05
6.72945e-05
7.22428e-05
7.69394e-05
8.13836e-05
8.55413e-05
8.94096e-05
9.30163e-05
9.63531e-05
9.94281e-05
0.000102232
0.00010478
0.000107069
0.000109116
0.000110923
0.000112502
0.000113864
0.00011502
0.000115982
0.00011676
0.000117364
0.000117802
0.000118079
0.000118205
0.000118179
0.000117991
0.000117647
0.000117168
0.000116566
0.000115866
0.000115085
0.000114185
0.000113136
0.000111965
0.000110687
0.000109349
0.000108001
0.000106583
0.000105043
0.000103367
0.000101539
9.95883e-05
9.75464e-05
9.54059e-05
9.31535e-05
9.07864e-05
8.83349e-05
8.58105e-05
8.32027e-05
8.0509e-05
7.7729e-05
7.48761e-05
7.19694e-05
6.8971e-05
6.58685e-05
6.27057e-05
5.95033e-05
5.62727e-05
5.30086e-05
4.96983e-05
4.63485e-05
4.3079e-05
4.00563e-05
3.71924e-05
3.4157e-05
3.08648e-05
2.75217e-05
2.42274e-05
2.09656e-05
1.77851e-05
1.46543e-05
1.15971e-05
8.65353e-06
5.83074e-06
3.18933e-06
7.95017e-07
-1.347e-06
-3.17554e-06
-4.67289e-06
-5.83479e-06
-6.5363e-06
-6.81651e-06
-6.54944e-06
-5.75348e-06
-4.41151e-06
-2.80391e-06
2.65643e-09
2.65758e-06
6.24008e-06
1.00509e-05
1.43748e-05
1.90862e-05
2.40884e-05
2.93696e-05
3.47649e-05
4.02683e-05
4.58019e-05
5.13145e-05
5.67699e-05
6.21156e-05
6.7292e-05
7.22405e-05
7.6938e-05
8.13827e-05
8.55408e-05
8.941e-05
9.30171e-05
9.63537e-05
9.94284e-05
0.000102232
0.000104779
0.000107068
0.000109115
0.000110921
0.0001125
0.000113862
0.000115018
0.00011598
0.000116758
0.000117362
0.000117799
0.000118077
0.000118202
0.000118175
0.000117987
0.000117644
0.000117166
0.000116565
0.000115866
0.000115084
0.000114183
0.000113134
0.000111965
0.000110688
0.000109351
0.000108003
0.000106582
0.000105042
0.000103365
0.000101538
9.95881e-05
9.75466e-05
9.54059e-05
9.3154e-05
9.07883e-05
8.83377e-05
8.58131e-05
8.32055e-05
8.05121e-05
7.77325e-05
7.48802e-05
7.19729e-05
6.89749e-05
6.58744e-05
6.27125e-05
5.95104e-05
5.62797e-05
5.30155e-05
4.97059e-05
4.63587e-05
4.30914e-05
4.00657e-05
3.71958e-05
3.41582e-05
3.08695e-05
2.7528e-05
2.42346e-05
2.09736e-05
1.77917e-05
1.46607e-05
1.16039e-05
8.65993e-06
5.83839e-06
3.19748e-06
8.01447e-07
-1.34139e-06
-3.17121e-06
-4.66903e-06
-5.83013e-06
-6.5313e-06
-6.81259e-06
-6.54619e-06
-5.75126e-06
-4.40874e-06
-2.80402e-06
1.28554e-09
2.65344e-06
6.23588e-06
1.00469e-05
1.437e-05
1.90807e-05
2.40801e-05
2.93602e-05
3.47572e-05
4.02622e-05
4.5797e-05
5.13114e-05
5.67667e-05
6.21106e-05
6.72857e-05
7.22345e-05
7.69341e-05
8.13791e-05
8.5538e-05
8.94092e-05
9.30168e-05
9.63532e-05
9.94273e-05
0.00010223
0.000104777
0.000107065
0.000109111
0.000110917
0.000112495
0.000113857
0.000115013
0.000115975
0.000116753
0.000117357
0.000117794
0.000118071
0.000118196
0.000118168
0.00011798
0.00011764
0.000117163
0.000116564
0.000115866
0.000115082
0.000114179
0.000113132
0.000111964
0.000110691
0.000109357
0.000108005
0.00010658
0.000105037
0.000103359
0.000101535
9.95884e-05
9.75476e-05
9.54068e-05
9.3156e-05
9.07934e-05
8.83443e-05
8.58192e-05
8.32116e-05
8.05184e-05
7.77401e-05
7.4889e-05
7.19801e-05
6.89824e-05
6.58854e-05
6.27255e-05
5.95243e-05
5.62931e-05
5.30281e-05
4.97197e-05
4.63784e-05
4.31168e-05
4.00825e-05
3.71927e-05
3.41464e-05
3.08694e-05
2.75359e-05
2.42442e-05
2.09844e-05
1.77999e-05
1.46691e-05
1.16129e-05
8.66865e-06
5.84847e-06
3.20804e-06
8.10101e-07
-1.3337e-06
-3.16507e-06
-4.66382e-06
-5.8245e-06
-6.52553e-06
-6.80804e-06
-6.54264e-06
-5.74903e-06
-4.40611e-06
-2.80535e-06
-2.47983e-09
2.64782e-06
6.22898e-06
1.00397e-05
1.43614e-05
1.90707e-05
2.4068e-05
2.93473e-05
3.47458e-05
4.02521e-05
4.57884e-05
5.13042e-05
5.67593e-05
6.21015e-05
6.72752e-05
7.22248e-05
7.6927e-05
8.13719e-05
8.5532e-05
8.94064e-05
9.30146e-05
9.63509e-05
9.94241e-05
0.000102226
0.000104772
0.00010706
0.000109105
0.00011091
0.000112489
0.00011385
0.000115006
0.000115968
0.000116746
0.000117349
0.000117786
0.000118063
0.000118187
0.000118159
0.000117972
0.000117634
0.00011716
0.000116564
0.000115867
0.00011508
0.000114174
0.00011313
0.000111965
0.000110695
0.000109364
0.000108008
0.000106577
0.000105031
0.000103352
0.000101532
9.95903e-05
9.75506e-05
9.54104e-05
9.31613e-05
9.08018e-05
8.83544e-05
8.58291e-05
8.32217e-05
8.05291e-05
7.77523e-05
7.49027e-05
7.19926e-05
6.89953e-05
6.59015e-05
6.27439e-05
5.9544e-05
5.63128e-05
5.30478e-05
4.97415e-05
4.64074e-05
4.31524e-05
4.01055e-05
3.71868e-05
3.41288e-05
3.08686e-05
2.75471e-05
2.4257e-05
2.09978e-05
1.78108e-05
1.46803e-05
1.16243e-05
8.67985e-06
5.86015e-06
3.21956e-06
8.20104e-07
-1.32499e-06
-3.15798e-06
-4.65794e-06
-5.81906e-06
-6.52043e-06
-6.80436e-06
-6.54053e-06
-5.74827e-06
-4.40536e-06
-2.80962e-06
-9.71282e-09
2.63921e-06
6.21808e-06
1.00282e-05
1.43481e-05
1.90557e-05
2.40513e-05
2.933e-05
3.47295e-05
4.02368e-05
4.57738e-05
5.12905e-05
5.6746e-05
6.20881e-05
6.72615e-05
7.22124e-05
7.6917e-05
8.13619e-05
8.55239e-05
8.94016e-05
9.30104e-05
9.63466e-05
9.9419e-05
0.000102221
0.000104766
0.000107053
0.000109097
0.000110902
0.00011248
0.000113842
0.000114997
0.000115959
0.000116737
0.00011734
0.000117777
0.000118054
0.000118178
0.000118149
0.000117965
0.00011763
0.000117158
0.000116565
0.000115868
0.000115078
0.000114171
0.00011313
0.000111968
0.000110703
0.000109374
0.000108011
0.000106573
0.000105024
0.000103347
0.000101532
9.95947e-05
9.75567e-05
9.5418e-05
9.31707e-05
9.08134e-05
8.83672e-05
8.58426e-05
8.3236e-05
8.05444e-05
7.7769e-05
7.49203e-05
7.20102e-05
6.90137e-05
6.59219e-05
6.27661e-05
5.95672e-05
5.63365e-05
5.30724e-05
4.97684e-05
4.64398e-05
4.3188e-05
4.0128e-05
3.71851e-05
3.41208e-05
3.08745e-05
2.75616e-05
2.42726e-05
2.10131e-05
1.78244e-05
1.46933e-05
1.16369e-05
8.69209e-06
5.87233e-06
3.23121e-06
8.30228e-07
-1.31651e-06
-3.1514e-06
-4.65287e-06
-5.81493e-06
-6.51708e-06
-6.80262e-06
-6.54077e-06
-5.75014e-06
-4.40749e-06
-2.81684e-06
-2.15255e-08
2.62635e-06
6.20202e-06
1.00114e-05
1.43292e-05
1.90351e-05
2.40292e-05
2.93069e-05
3.47071e-05
4.02152e-05
4.57533e-05
5.12712e-05
5.67281e-05
6.20714e-05
6.72455e-05
7.21978e-05
7.69046e-05
8.13504e-05
8.55148e-05
8.93952e-05
9.30047e-05
9.63409e-05
9.94128e-05
0.000102214
0.000104758
0.000107045
0.000109089
0.000110894
0.000112471
0.000113833
0.000114989
0.000115951
0.000116729
0.000117332
0.000117769
0.000118046
0.00011817
0.000118142
0.000117959
0.000117627
0.000117158
0.000116567
0.00011587
0.000115077
0.000114169
0.000113131
0.000111972
0.000110712
0.000109384
0.000108015
0.000106571
0.00010502
0.000103346
0.000101536
9.96021e-05
9.75659e-05
9.54287e-05
9.31832e-05
9.08279e-05
8.83832e-05
8.58595e-05
8.3254e-05
8.05635e-05
7.77895e-05
7.49416e-05
7.20316e-05
6.90358e-05
6.59457e-05
6.27914e-05
5.95934e-05
5.63631e-05
5.30994e-05
4.97967e-05
4.6471e-05
4.32204e-05
4.01496e-05
3.71915e-05
3.41258e-05
3.08868e-05
2.75778e-05
2.42898e-05
2.10298e-05
1.78396e-05
1.47074e-05
1.16503e-05
8.70455e-06
5.88429e-06
3.24238e-06
8.39597e-07
-1.30917e-06
-3.14636e-06
-4.64983e-06
-5.81321e-06
-6.51657e-06
-6.80391e-06
-6.54438e-06
-5.75566e-06
-4.41351e-06
-2.82753e-06
-3.90467e-08
2.60819e-06
6.1798e-06
9.98824e-06
1.4304e-05
1.90078e-05
2.40005e-05
2.9277e-05
3.46781e-05
4.01876e-05
4.5728e-05
5.12488e-05
5.67082e-05
6.20526e-05
6.72275e-05
7.21815e-05
7.68906e-05
8.13381e-05
8.55049e-05
8.93876e-05
9.29979e-05
9.63343e-05
9.9406e-05
0.000102207
0.000104751
0.000107037
0.000109081
0.000110885
0.000112463
0.000113825
0.000114981
0.000115943
0.000116722
0.000117325
0.000117763
0.00011804
0.000118165
0.000118137
0.000117956
0.000117626
0.00011716
0.000116569
0.000115872
0.000115078
0.00011417
0.000113134
0.000111978
0.000110721
0.000109394
0.000108019
0.00010657
0.000105021
0.000103351
0.000101544
9.96123e-05
9.75779e-05
9.54422e-05
9.31983e-05
9.0845e-05
8.84021e-05
8.58796e-05
8.3275e-05
8.05857e-05
7.78129e-05
7.49658e-05
7.20558e-05
6.90604e-05
6.59719e-05
6.28191e-05
5.96218e-05
5.63917e-05
5.31278e-05
4.98257e-05
4.65015e-05
4.32517e-05
4.01743e-05
3.72071e-05
3.41386e-05
3.09018e-05
2.75953e-05
2.43079e-05
2.10475e-05
1.78556e-05
1.47219e-05
1.16636e-05
8.71652e-06
5.89535e-06
3.25235e-06
8.47389e-07
-1.30384e-06
-3.14382e-06
-4.6498e-06
-5.81485e-06
-6.51988e-06
-6.80917e-06
-6.5523e-06
-5.76575e-06
-4.42434e-06
-2.84253e-06
-6.32817e-08
2.58373e-06
6.15054e-06
9.95803e-06
1.42716e-05
1.89735e-05
2.3965e-05
2.92409e-05
3.46439e-05
4.01566e-05
4.57004e-05
5.12247e-05
5.66863e-05
6.20317e-05
6.72079e-05
7.21639e-05
7.68755e-05
8.13252e-05
8.54944e-05
8.93793e-05
9.29907e-05
9.63277e-05
9.93995e-05
0.0001022
0.000104744
0.00010703
0.000109074
0.000110879
0.000112457
0.000113819
0.000114975
0.000115938
0.000116717
0.000117321
0.000117759
0.000118037
0.000118162
0.000118135
0.000117955
0.000117628
0.000117162
0.000116573
0.000115876
0.000115081
0.000114173
0.000113139
0.000111986
0.000110732
0.000109405
0.000108026
0.000106575
0.000105028
0.00010336
0.000101555
9.9625e-05
9.75923e-05
9.54579e-05
9.32156e-05
9.08644e-05
8.84234e-05
8.5902e-05
8.32984e-05
8.061e-05
7.78383e-05
7.4992e-05
7.20818e-05
6.90866e-05
6.59996e-05
6.28482e-05
5.96517e-05
5.64215e-05
5.31575e-05
4.98564e-05
4.65348e-05
4.32862e-05
4.02041e-05
3.72277e-05
3.41532e-05
3.09176e-05
2.76135e-05
2.43267e-05
2.10657e-05
1.78718e-05
1.47362e-05
1.16762e-05
8.72735e-06
5.90489e-06
3.26043e-06
8.52842e-07
-1.30131e-06
-3.14458e-06
-4.6536e-06
-5.82065e-06
-6.52778e-06
-6.81914e-06
-6.56526e-06
-5.78116e-06
-4.44082e-06
-2.86271e-06
-9.50104e-08
2.55223e-06
6.11375e-06
9.92053e-06
1.42325e-05
1.89329e-05
2.39248e-05
2.92014e-05
3.46073e-05
4.01236e-05
4.56709e-05
5.11981e-05
5.66618e-05
6.20088e-05
6.71868e-05
7.21453e-05
7.68597e-05
8.13119e-05
8.54837e-05
8.93709e-05
9.29839e-05
9.63219e-05
9.9394e-05
0.000102195
0.000104739
0.000107025
0.000109069
0.000110874
0.000112452
0.000113815
0.000114972
0.000115935
0.000116714
0.000117319
0.000117758
0.000118037
0.000118162
0.000118136
0.000117957
0.000117631
0.000117167
0.000116579
0.000115882
0.000115086
0.000114179
0.000113146
0.000111995
0.000110744
0.000109417
0.000108037
0.000106588
0.000105041
0.000103372
0.000101568
9.96398e-05
9.76088e-05
9.54756e-05
9.32348e-05
9.08857e-05
8.84465e-05
8.59262e-05
8.33234e-05
8.06359e-05
7.78652e-05
7.50195e-05
7.21088e-05
6.91138e-05
6.60283e-05
6.28784e-05
5.96827e-05
5.64527e-05
5.3189e-05
4.98896e-05
4.65719e-05
4.33253e-05
4.02378e-05
3.725e-05
3.41683e-05
3.09337e-05
2.76321e-05
2.43455e-05
2.10837e-05
1.78875e-05
1.47495e-05
1.16876e-05
8.73646e-06
5.9123e-06
3.266e-06
8.55318e-07
-1.30221e-06
-3.14928e-06
-4.66184e-06
-5.83119e-06
-6.54087e-06
-6.83444e-06
-6.58391e-06
-5.80257e-06
-4.46375e-06
-2.88894e-06
-1.34516e-07
2.51378e-06
6.07018e-06
9.87731e-06
1.41891e-05
1.8889e-05
2.3882e-05
2.91595e-05
3.45681e-05
4.00875e-05
4.5638e-05
5.11685e-05
5.66351e-05
6.19844e-05
6.71648e-05
7.21261e-05
7.68436e-05
8.12986e-05
8.54732e-05
8.93632e-05
9.29782e-05
9.63174e-05
9.93903e-05
0.000102192
0.000104736
0.000107023
0.000109067
0.000110872
0.000112451
0.000113814
0.000114972
0.000115936
0.000116716
0.000117321
0.00011776
0.00011804
0.000118165
0.000118139
0.000117962
0.000117636
0.000117173
0.000116586
0.000115889
0.000115093
0.000114186
0.000113156
0.000112008
0.000110758
0.000109434
0.000108055
0.000106605
0.000105056
0.000103386
0.000101582
9.96566e-05
9.76271e-05
9.5495e-05
9.32556e-05
9.09086e-05
8.84711e-05
8.59518e-05
8.33497e-05
8.06629e-05
7.7893e-05
7.50478e-05
7.21368e-05
6.91418e-05
6.60578e-05
6.29095e-05
5.97149e-05
5.64855e-05
5.32226e-05
4.99257e-05
4.66124e-05
4.33677e-05
4.02736e-05
3.72732e-05
3.41838e-05
3.095e-05
2.76505e-05
2.43639e-05
2.1101e-05
1.79022e-05
1.47615e-05
1.16972e-05
8.74342e-06
5.91716e-06
3.26858e-06
8.54348e-07
-1.307e-06
-3.15833e-06
-4.67492e-06
-5.84689e-06
-6.55965e-06
-6.8556e-06
-6.6088e-06
-5.83056e-06
-4.49375e-06
-2.92184e-06
-1.80715e-07
2.47046e-06
6.0227e-06
9.8307e-06
1.41426e-05
1.88419e-05
2.38354e-05
2.91131e-05
3.45246e-05
4.00473e-05
4.56017e-05
5.11363e-05
5.66065e-05
6.19588e-05
6.71419e-05
7.21066e-05
7.68276e-05
8.12859e-05
8.54638e-05
8.93569e-05
9.29742e-05
9.63152e-05
9.93892e-05
0.000102191
0.000104736
0.000107023
0.000109068
0.000110874
0.000112453
0.000113817
0.000114975
0.00011594
0.000116721
0.000117327
0.000117766
0.000118046
0.000118172
0.000118146
0.000117969
0.000117644
0.000117182
0.000116595
0.000115899
0.000115105
0.000114198
0.000113169
0.000112023
0.000110777
0.000109455
0.000108076
0.000106624
0.000105072
0.000103401
0.000101599
9.96752e-05
9.7647e-05
9.55159e-05
9.32778e-05
9.09328e-05
8.84969e-05
8.59785e-05
8.3377e-05
8.06908e-05
7.79216e-05
7.5077e-05
7.21655e-05
6.91707e-05
6.60884e-05
6.29419e-05
5.97487e-05
5.65202e-05
5.32586e-05
4.99644e-05
4.66553e-05
4.34121e-05
4.03107e-05
3.72972e-05
3.41997e-05
3.09662e-05
2.76684e-05
2.43815e-05
2.11174e-05
1.79155e-05
1.47719e-05
1.17047e-05
8.74802e-06
5.91926e-06
3.26796e-06
8.49646e-07
-1.31597e-06
-3.17202e-06
-4.69311e-06
-5.86804e-06
-6.58442e-06
-6.88303e-06
-6.64028e-06
-5.86536e-06
-4.53073e-06
-2.96098e-06
-2.31308e-07
2.42362e-06
5.97141e-06
9.77985e-06
1.40911e-05
1.87892e-05
2.37834e-05
2.90617e-05
3.44765e-05
4.00034e-05
4.55623e-05
5.11018e-05
5.65762e-05
6.19321e-05
6.71187e-05
7.20872e-05
7.68123e-05
8.12743e-05
8.54559e-05
8.93526e-05
9.29727e-05
9.63158e-05
9.93912e-05
0.000102194
0.00010474
0.000107028
0.000109073
0.00011088
0.00011246
0.000113824
0.000114983
0.000115949
0.00011673
0.000117336
0.000117776
0.000118056
0.000118182
0.000118156
0.000117979
0.000117655
0.000117194
0.000116609
0.000115915
0.000115121
0.000114215
0.000113186
0.000112043
0.0001108
0.000109479
0.0001081
0.000106644
0.000105091
0.000103419
0.000101618
9.96955e-05
9.76685e-05
9.55384e-05
9.33015e-05
9.09582e-05
8.8524e-05
8.60064e-05
8.34055e-05
8.07198e-05
7.79514e-05
7.51072e-05
7.21954e-05
6.92009e-05
6.61204e-05
6.29759e-05
5.97843e-05
5.6557e-05
5.32969e-05
5.00053e-05
4.67003e-05
4.34581e-05
4.03489e-05
3.73219e-05
3.42159e-05
3.09822e-05
2.76858e-05
2.43984e-05
2.11327e-05
1.79276e-05
1.47805e-05
1.17103e-05
8.75022e-06
5.91859e-06
3.26411e-06
8.41129e-07
-1.32931e-06
-3.19057e-06
-4.7166e-06
-5.89475e-06
-6.61512e-06
-6.91647e-06
-6.67797e-06
-5.90628e-06
-4.57306e-06
-3.00416e-06
-2.86752e-07
2.37147e-06
5.91381e-06
9.72253e-06
1.40331e-05
1.87304e-05
2.37258e-05
2.90052e-05
3.44241e-05
3.99558e-05
4.55202e-05
5.10652e-05
5.65445e-05
6.19047e-05
6.70954e-05
7.20684e-05
7.6798e-05
8.12643e-05
8.54502e-05
8.9351e-05
9.29743e-05
9.63199e-05
9.9397e-05
0.000102202
0.000104749
0.000107037
0.000109083
0.00011089
0.000112471
0.000113836
0.000114996
0.000115962
0.000116744
0.00011735
0.000117791
0.000118071
0.000118195
0.000118169
0.000117993
0.00011767
0.000117211
0.000116628
0.000115935
0.000115141
0.000114235
0.000113207
0.000112066
0.000110825
0.000109506
0.000108125
0.000106667
0.000105112
0.000103439
0.000101638
9.97175e-05
9.76918e-05
9.55624e-05
9.33267e-05
9.09852e-05
8.85524e-05
8.60357e-05
8.34354e-05
8.07503e-05
7.79826e-05
7.51389e-05
7.22269e-05
6.92327e-05
6.61542e-05
6.30119e-05
5.98221e-05
5.65962e-05
5.33375e-05
5.00484e-05
4.67472e-05
4.35058e-05
4.03886e-05
3.73477e-05
3.42327e-05
3.09981e-05
2.77029e-05
2.44148e-05
2.11473e-05
1.79385e-05
1.47876e-05
1.17138e-05
8.74993e-06
5.91501e-06
3.25695e-06
8.28881e-07
-1.34696e-06
-3.214e-06
-4.74543e-06
-5.92696e-06
-6.65098e-06
-6.95452e-06
-6.7203e-06
-5.95171e-06
-4.61984e-06
-3.0515e-06
-3.49308e-07
2.31226e-06
5.84908e-06
9.65834e-06
1.39687e-05
1.86654e-05
2.36626e-05
2.89437e-05
3.43674e-05
3.99047e-05
4.54753e-05
5.10266e-05
5.65117e-05
6.18769e-05
6.70724e-05
7.20505e-05
7.67854e-05
8.12565e-05
8.54472e-05
8.93526e-05
9.29796e-05
9.6328e-05
9.94072e-05
0.000102213
0.000104762
0.000107051
0.000109098
0.000110906
0.000112487
0.000113853
0.000115013
0.00011598
0.000116762
0.000117369
0.000117809
0.000118089
0.000118214
0.000118187
0.000118012
0.000117691
0.000117233
0.000116652
0.00011596
0.000115165
0.000114258
0.000113231
0.000112092
0.000110853
0.000109535
0.000108153
0.000106693
0.000105135
0.000103462
0.000101661
9.97417e-05
9.7717e-05
9.55885e-05
9.33538e-05
9.10141e-05
8.85829e-05
8.60671e-05
8.34674e-05
8.0783e-05
7.8016e-05
7.5173e-05
7.22607e-05
6.9267e-05
6.61905e-05
6.30504e-05
5.98624e-05
5.66379e-05
5.33807e-05
5.00942e-05
4.67967e-05
4.35557e-05
4.04302e-05
3.7375e-05
3.42504e-05
3.10144e-05
2.77199e-05
2.44307e-05
2.11613e-05
1.79485e-05
1.47931e-05
1.1715e-05
8.74675e-06
5.90789e-06
3.2458e-06
8.12795e-07
-1.36835e-06
-3.24165e-06
-4.77889e-06
-5.96401e-06
-6.69191e-06
-6.99757e-06
-6.76768e-06
-6.00232e-06
-4.67269e-06
-3.10539e-06
-4.19511e-07
2.24567e-06
5.7771e-06
9.58712e-06
1.38976e-05
1.85942e-05
2.35938e-05
2.88772e-05
3.43065e-05
3.98501e-05
4.54277e-05
5.09863e-05
5.64779e-05
6.1849e-05
6.705e-05
7.2034e-05
7.67747e-05
8.12514e-05
8.54475e-05
8.9358e-05
9.29891e-05
9.63409e-05
9.94223e-05
0.000102231
0.00010478
0.000107071
0.000109118
0.000110927
0.000112509
0.000113875
0.000115037
0.000116003
0.000116786
0.000117393
0.000117833
0.000118112
0.000118238
0.000118212
0.000118036
0.000117716
0.000117259
0.000116679
0.000115987
0.000115192
0.000114285
0.000113259
0.000112121
0.000110884
0.000109568
0.000108184
0.000106722
0.000105162
0.000103487
0.000101687
9.97687e-05
9.77448e-05
9.56171e-05
9.33835e-05
9.10456e-05
8.8616e-05
8.61012e-05
8.35023e-05
8.08187e-05
7.80526e-05
7.52102e-05
7.22979e-05
6.93047e-05
6.623e-05
6.3092e-05
5.99058e-05
5.66827e-05
5.34269e-05
5.01429e-05
4.68489e-05
4.3608e-05
4.0474e-05
3.74042e-05
3.42694e-05
3.10307e-05
2.77361e-05
2.44452e-05
2.11732e-05
1.79562e-05
1.47966e-05
1.17141e-05
8.74066e-06
5.89724e-06
3.23052e-06
7.92138e-07
-1.39443e-06
-3.27414e-06
-4.81736e-06
-6.00633e-06
-6.73895e-06
-7.04733e-06
-6.822e-06
-6.06008e-06
-4.73304e-06
-3.16664e-06
-4.97561e-07
2.17139e-06
5.69756e-06
9.50858e-06
1.38196e-05
1.85164e-05
2.35191e-05
2.88055e-05
3.42411e-05
3.9792e-05
4.53776e-05
5.09443e-05
5.64433e-05
6.18211e-05
6.70285e-05
7.20192e-05
7.67665e-05
8.12495e-05
8.54516e-05
8.93677e-05
9.30034e-05
9.63588e-05
9.94429e-05
0.000102253
0.000104804
0.000107096
0.000109145
0.000110954
0.000112537
0.000113904
0.000115065
0.000116032
0.000116814
0.000117421
0.000117861
0.000118141
0.000118267
0.000118242
0.000118066
0.000117746
0.00011729
0.00011671
0.000116019
0.000115223
0.000114315
0.000113291
0.000112155
0.00011092
0.000109604
0.00010822
0.000106755
0.000105193
0.000103516
0.000101716
9.97991e-05
9.77762e-05
9.56492e-05
9.34167e-05
9.10804e-05
8.86525e-05
8.61388e-05
8.35407e-05
8.08578e-05
7.80927e-05
7.52509e-05
7.23386e-05
6.9346e-05
6.62731e-05
6.3137e-05
5.99521e-05
5.67299e-05
5.34751e-05
5.01929e-05
4.69017e-05
4.36604e-05
4.05175e-05
3.74333e-05
3.42884e-05
3.10467e-05
2.7751e-05
2.44577e-05
2.11825e-05
1.79608e-05
1.47967e-05
1.17096e-05
8.73101e-06
5.88291e-06
3.21123e-06
7.66582e-07
-1.42618e-06
-3.31256e-06
-4.86206e-06
-6.05514e-06
-6.79289e-06
-7.10426e-06
-6.88381e-06
-6.12552e-06
-4.80128e-06
-3.2356e-06
-5.83842e-07
2.08901e-06
5.61005e-06
9.42235e-06
1.37342e-05
1.84317e-05
2.34381e-05
2.87283e-05
3.41712e-05
3.97303e-05
4.53248e-05
5.09006e-05
5.64081e-05
6.17935e-05
6.70082e-05
7.20064e-05
7.67612e-05
8.12511e-05
8.54599e-05
8.93822e-05
9.3023e-05
9.63824e-05
9.94694e-05
0.000102282
0.000104835
0.000107128
0.000109177
0.000110988
0.000112571
0.000113939
0.0001151
0.000116067
0.000116849
0.000117455
0.000117894
0.000118173
0.0001183
0.000118275
0.000118099
0.000117779
0.000117324
0.000116746
0.000116055
0.000115259
0.000114351
0.000113327
0.000112192
0.00011096
0.000109645
0.000108259
0.000106792
0.000105227
0.000103549
0.000101749
9.98333e-05
9.78114e-05
9.56853e-05
9.34537e-05
9.1119e-05
8.86923e-05
8.61794e-05
8.35818e-05
8.08994e-05
7.81348e-05
7.52934e-05
7.23807e-05
6.93884e-05
6.63173e-05
6.31833e-05
5.99998e-05
5.67781e-05
5.35238e-05
5.0243e-05
4.69539e-05
4.37112e-05
4.05589e-05
3.74601e-05
3.43053e-05
3.10605e-05
2.77639e-05
2.4468e-05
2.11895e-05
1.79628e-05
1.47933e-05
1.17013e-05
8.71745e-06
5.86446e-06
3.18757e-06
7.36273e-07
-1.46324e-06
-3.35683e-06
-4.91314e-06
-6.11079e-06
-6.85408e-06
-7.16871e-06
-6.95343e-06
-6.19899e-06
-4.8778e-06
-3.31272e-06
-6.78857e-07
1.99801e-06
5.5141e-06
9.32795e-06
1.3641e-05
1.83398e-05
2.33507e-05
2.86455e-05
3.40966e-05
3.96649e-05
4.52693e-05
5.08553e-05
5.63722e-05
6.17664e-05
6.69894e-05
7.19961e-05
7.67591e-05
8.12568e-05
8.54729e-05
8.94019e-05
9.30483e-05
9.64122e-05
9.95024e-05
0.000102318
0.000104872
0.000107167
0.000109217
0.000111028
0.000112612
0.00011398
0.000115142
0.000116108
0.00011689
0.000117495
0.000117934
0.000118211
0.000118337
0.000118311
0.000118135
0.000117816
0.000117362
0.000116785
0.000116095
0.000115298
0.00011439
0.000113367
0.000112234
0.000111003
0.000109689
0.000108302
0.000106832
0.000105265
0.000103585
0.000101785
9.98697e-05
9.78486e-05
9.57231e-05
9.3493e-05
9.116e-05
8.87344e-05
8.62219e-05
8.36243e-05
8.09418e-05
7.81773e-05
7.53358e-05
7.24224e-05
6.94301e-05
6.63603e-05
6.32283e-05
6.00465e-05
5.68255e-05
5.3572e-05
5.02928e-05
4.70058e-05
4.37615e-05
4.05997e-05
3.74861e-05
3.43209e-05
3.10726e-05
2.77749e-05
2.44766e-05
2.11948e-05
1.79629e-05
1.47879e-05
1.16903e-05
8.7007e-06
5.84226e-06
3.15956e-06
7.01047e-07
-1.50579e-06
-3.40719e-06
-4.97088e-06
-6.17359e-06
-6.92293e-06
-7.24112e-06
-7.03133e-06
-6.28098e-06
-4.9631e-06
-3.3985e-06
-7.83195e-07
1.89782e-06
5.40914e-06
9.22485e-06
1.35395e-05
1.82402e-05
2.32563e-05
2.85567e-05
3.40169e-05
3.95955e-05
4.5211e-05
5.08083e-05
5.63357e-05
6.17398e-05
6.69722e-05
7.19883e-05
7.67606e-05
8.12668e-05
8.5491e-05
8.94274e-05
9.30797e-05
9.64485e-05
9.95422e-05
0.00010236
0.000104917
0.000107213
0.000109264
0.000111076
0.000112661
0.000114029
0.00011519
0.000116156
0.000116937
0.000117541
0.000117979
0.000118255
0.000118379
0.000118352
0.000118175
0.000117856
0.000117403
0.000116827
0.000116137
0.00011534
0.000114432
0.000113409
0.000112278
0.000111048
0.000109735
0.000108347
0.000106874
0.000105304
0.000103622
0.000101822
9.99071e-05
9.78864e-05
9.57614e-05
9.35324e-05
9.12011e-05
8.87768e-05
8.62648e-05
8.36673e-05
8.09849e-05
7.82205e-05
7.53789e-05
7.2465e-05
6.94727e-05
6.64043e-05
6.32738e-05
6.00934e-05
5.68735e-05
5.3621e-05
5.03435e-05
4.70585e-05
4.38126e-05
4.06414e-05
3.75132e-05
3.43374e-05
3.1085e-05
2.77856e-05
2.44845e-05
2.11989e-05
1.79615e-05
1.47804e-05
1.16768e-05
8.68081e-06
5.81626e-06
3.12706e-06
6.60688e-07
-1.5541e-06
-3.46395e-06
-5.03562e-06
-6.24397e-06
-6.99988e-06
-7.32201e-06
-7.11802e-06
-6.37203e-06
-5.05775e-06
-3.49354e-06
-8.97531e-07
1.78784e-06
5.29455e-06
9.11243e-06
1.34292e-05
1.81323e-05
2.31545e-05
2.84613e-05
3.39318e-05
3.95218e-05
4.51497e-05
5.07595e-05
5.62987e-05
6.17138e-05
6.69567e-05
7.19834e-05
7.67658e-05
8.12815e-05
8.55144e-05
8.94589e-05
9.31178e-05
9.64919e-05
9.95894e-05
0.000102411
0.000104969
0.000107267
0.000109319
0.000111132
0.000112717
0.000114084
0.000115245
0.000116211
0.000116991
0.000117594
0.00011803
0.000118305
0.000118427
0.000118398
0.000118221
0.000117902
0.000117449
0.000116873
0.000116184
0.000115386
0.000114477
0.000113455
0.000112325
0.000111097
0.000109784
0.000108394
0.000106919
0.000105345
0.000103662
0.000101861
9.9947e-05
9.79267e-05
9.58021e-05
9.35738e-05
9.1244e-05
8.88208e-05
8.63096e-05
8.37124e-05
8.10304e-05
7.82663e-05
7.54248e-05
7.25105e-05
6.95186e-05
6.64515e-05
6.33225e-05
6.01434e-05
5.69244e-05
5.36729e-05
5.03968e-05
4.71134e-05
4.38654e-05
4.06846e-05
3.75418e-05
3.43552e-05
3.10981e-05
2.77964e-05
2.44918e-05
2.12021e-05
1.79585e-05
1.4771e-05
1.16608e-05
8.65772e-06
5.78636e-06
3.08994e-06
6.14993e-07
-1.60845e-06
-3.52746e-06
-5.10776e-06
-6.32238e-06
-7.08542e-06
-7.41193e-06
-7.21408e-06
-6.47275e-06
-5.16239e-06
-3.59844e-06
-1.02261e-06
1.66732e-06
5.1696e-06
8.99001e-06
1.33093e-05
1.80155e-05
2.30446e-05
2.8359e-05
3.38409e-05
3.94435e-05
4.5085e-05
5.07086e-05
5.62609e-05
6.16884e-05
6.69431e-05
7.19814e-05
7.6775e-05
8.1301e-05
8.55436e-05
8.94967e-05
9.31627e-05
9.65426e-05
9.96444e-05
0.000102469
0.000105029
0.000107329
0.000109382
0.000111195
0.000112781
0.000114148
0.000115309
0.000116273
0.000117052
0.000117654
0.000118088
0.000118362
0.000118482
0.000118451
0.000118273
0.000117954
0.000117501
0.000116925
0.000116236
0.000115437
0.000114528
0.000113506
0.000112377
0.00011115
0.000109837
0.000108445
0.000106967
0.000105391
0.000103706