/*--------------------------------*- C++ -*----------------------------------*\
| =========                 |                                                 |
| \\      /  F ield         | OpenFOAM: The Open Source CFD Toolbox           |
|  \\    /   O peration     | Version:  5.0                                   |
|   \\  /    A nd           | Web:      www.OpenFOAM.org                      |
|    \\/     M anipulation  |                                                 |
\*---------------------------------------------------------------------------*/
FoamFile
{
    version     2.0;
    format      ascii;
    class       surfaceScalarField;
    location    "20000";
    object      phi;
}
// * * * * * * * * * * * * * * * * * * * * * * * * * * * * * * * * * * * * * //

dimensions      [0 3 -1 0 0 0 0];

internalField   nonuniform List<scalar> 
29254
(
-5.71621e-07
6.28421e-09
-5.79614e-07
7.99253e-09
-5.83998e-07
4.38413e-09
-5.86872e-07
2.87432e-09
-5.88058e-07
1.18625e-09
-5.87276e-07
-7.82e-10
-5.84918e-07
-2.35854e-09
-5.80141e-07
-4.77719e-09
-5.73535e-07
-6.60604e-09
-5.65419e-07
-8.11509e-09
-5.56168e-07
-9.25186e-09
-5.46177e-07
-9.9903e-09
-5.35554e-07
-1.06234e-08
-5.24163e-07
-1.13906e-08
-5.11901e-07
-1.22621e-08
-4.99e-07
-1.2901e-08
-4.8574e-07
-1.32605e-08
-4.72224e-07
-1.35153e-08
-4.58768e-07
-1.34559e-08
-4.4582e-07
-1.29484e-08
-4.33478e-07
-1.23424e-08
-4.21805e-07
-1.16731e-08
-4.10766e-07
-1.10381e-08
-4.00412e-07
-1.03547e-08
-3.90679e-07
-9.73241e-09
-3.81588e-07
-9.09095e-09
-3.73068e-07
-8.52062e-09
-3.6512e-07
-7.94773e-09
-3.57729e-07
-7.39118e-09
-3.50874e-07
-6.85453e-09
-3.4455e-07
-6.32466e-09
-3.38723e-07
-5.82624e-09
-3.33355e-07
-5.36832e-09
-3.28386e-07
-4.96942e-09
-3.23741e-07
-4.64458e-09
-3.19349e-07
-4.3925e-09
-3.15018e-07
-4.3306e-09
-3.10553e-07
-4.46523e-09
-3.05943e-07
-4.60957e-09
-3.01356e-07
-4.5869e-09
-2.9696e-07
-4.39673e-09
-2.92964e-07
-3.99566e-09
-2.89388e-07
-3.57607e-09
-2.85833e-07
-3.55521e-09
-2.82093e-07
-3.73928e-09
-2.78393e-07
-3.70077e-09
-2.75105e-07
-3.28728e-09
-2.72717e-07
-2.38871e-09
-2.71393e-07
-1.32329e-09
-2.70468e-07
-9.25276e-10
-2.69331e-07
-1.13663e-09
-2.67743e-07
-1.58817e-09
-2.6556e-07
-2.18281e-09
-2.62952e-07
-2.60833e-09
-2.60218e-07
-2.73453e-09
-2.57339e-07
-2.87854e-09
-2.54197e-07
-3.14211e-09
-2.5088e-07
-3.31638e-09
-2.47724e-07
-3.15674e-09
-2.44907e-07
-2.81715e-09
-2.42378e-07
-2.52837e-09
-2.40055e-07
-2.32355e-09
-2.38028e-07
-2.0271e-09
-2.36459e-07
-1.56862e-09
-2.35349e-07
-1.10978e-09
-2.34359e-07
-9.90116e-10
-2.33382e-07
-9.77027e-10
-2.32939e-07
-4.43012e-10
-2.33427e-07
4.8844e-10
-2.34905e-07
1.47713e-09
-2.37292e-07
2.38761e-09
-2.40569e-07
3.27686e-09
-2.45313e-07
4.74362e-09
-2.53026e-07
7.71323e-09
-2.64573e-07
1.15471e-08
-2.77908e-07
1.3335e-08
-2.89768e-07
1.18604e-08
-2.99936e-07
1.01675e-08
-3.10252e-07
1.03163e-08
-3.21422e-07
1.11695e-08
-3.32925e-07
1.1503e-08
-3.44823e-07
1.18982e-08
-3.56927e-07
1.21039e-08
-3.6909e-07
1.21628e-08
-3.8144e-07
1.23502e-08
-3.93915e-07
1.24754e-08
-4.06735e-07
1.28198e-08
-4.20251e-07
1.35163e-08
-4.34338e-07
1.40867e-08
-4.48803e-07
1.44648e-08
-4.63238e-07
1.44355e-08
-4.77234e-07
1.3996e-08
-4.91065e-07
1.3831e-08
-5.0452e-07
1.34543e-08
-5.18099e-07
1.35793e-08
-5.30864e-07
1.27653e-08
-5.42413e-07
1.15489e-08
-5.53008e-07
1.0595e-08
1.23236e-08
-1.77543e-06
2.19279e-08
-1.79645e-06
2.90075e-08
-1.81133e-06
1.92714e-08
-1.82361e-06
1.51538e-08
-1.83294e-06
1.05149e-08
-1.83759e-06
3.86635e-09
-1.83858e-06
-1.36906e-09
-1.83307e-06
-1.02843e-08
-1.82211e-06
-1.75746e-08
-1.80671e-06
-2.3509e-08
-1.78789e-06
-2.80743e-08
-1.76669e-06
-3.11926e-08
-1.74349e-06
-3.38199e-08
-1.7179e-06
-3.69803e-08
-1.6894e-06
-4.07662e-08
-1.65834e-06
-4.39527e-08
-1.62544e-06
-4.61653e-08
-1.59119e-06
-4.77611e-08
-1.55642e-06
-4.82273e-08
-1.52245e-06
-4.69179e-08
-1.48986e-06
-4.49376e-08
-1.4589e-06
-4.26268e-08
-1.42954e-06
-4.04005e-08
-1.40191e-06
-3.79861e-08
-1.37584e-06
-3.58072e-08
-1.35138e-06
-3.35461e-08
-1.32836e-06
-3.15393e-08
-1.3068e-06
-2.95092e-08
-1.28668e-06
-2.75134e-08
-1.26795e-06
-2.55855e-08
-1.25062e-06
-2.36546e-08
-1.23463e-06
-2.18175e-08
-1.21987e-06
-2.01224e-08
-1.20619e-06
-1.86544e-08
-1.19333e-06
-1.74991e-08
-1.18105e-06
-1.66742e-08
-1.16878e-06
-1.66009e-08
-1.15588e-06
-1.73676e-08
-1.14215e-06
-1.83353e-08
-1.12804e-06
-1.86977e-08
-1.11422e-06
-1.82224e-08
-1.10147e-06
-1.67433e-08
-1.09005e-06
-1.49908e-08
-1.07902e-06
-1.45845e-08
-1.06752e-06
-1.52457e-08
-1.05584e-06
-1.53829e-08
-1.04526e-06
-1.38596e-08
-1.03735e-06
-1.03066e-08
-1.0329e-06
-5.76873e-09
-1.03044e-06
-3.38227e-09
-1.02779e-06
-3.79431e-09
-1.02369e-06
-5.68312e-09
-1.01739e-06
-8.48648e-09
-1.00908e-06
-1.09124e-08
-9.99851e-07
-1.19658e-08
-9.90012e-07
-1.27178e-08
-9.79252e-07
-1.39019e-08
-9.67729e-07
-1.48393e-08
-9.56403e-07
-1.44836e-08
-9.4612e-07
-1.31001e-08
-9.36896e-07
-1.17522e-08
-9.28412e-07
-1.08074e-08
-9.20873e-07
-9.56603e-09
-9.14692e-07
-7.74955e-09
-9.09964e-07
-5.83791e-09
-9.0587e-07
-5.08379e-09
-9.01764e-07
-5.08329e-09
-8.99008e-07
-3.19907e-09
-8.9916e-07
6.40202e-10
-9.02592e-07
4.90932e-09
-9.0918e-07
8.97611e-09
-9.18866e-07
1.29619e-08
-9.33235e-07
1.91133e-08
-9.56461e-07
3.09389e-08
-9.91489e-07
4.65755e-08
-1.0336e-06
5.54434e-08
-1.07318e-06
5.14468e-08
-1.10711e-06
4.40969e-08
-1.13903e-06
4.22293e-08
-1.17203e-06
4.41713e-08
-1.20529e-06
4.47691e-08
-1.23894e-06
4.55424e-08
-1.27271e-06
4.58767e-08
-1.3058e-06
4.52489e-08
-1.33846e-06
4.50125e-08
-1.37062e-06
4.46331e-08
-1.40264e-06
4.48379e-08
-1.4357e-06
4.65846e-08
-1.46979e-06
4.81692e-08
-1.50406e-06
4.87365e-08
-1.53746e-06
4.78337e-08
-1.56873e-06
4.52708e-08
-1.59848e-06
4.35778e-08
-1.62683e-06
4.18023e-08
-1.65536e-06
4.21161e-08
-1.68191e-06
3.93166e-08
-1.70654e-06
3.61702e-08
-1.73098e-06
3.50438e-08
4.11286e-08
-3.08787e-06
4.16665e-08
-3.11995e-06
6.10874e-08
-3.14675e-06
4.60708e-08
-3.17248e-06
4.08857e-08
-3.1959e-06
3.3928e-08
-3.21321e-06
2.11791e-08
-3.22621e-06
1.16319e-08
-3.22949e-06
-7.00806e-09
-3.22382e-06
-2.32397e-08
-3.21093e-06
-3.63972e-08
-3.19241e-06
-4.65929e-08
-3.16985e-06
-5.37599e-08
-3.14411e-06
-5.95527e-08
-3.11465e-06
-6.64493e-08
-3.08018e-06
-7.52308e-08
-3.04075e-06
-8.33876e-08
-2.99725e-06
-8.96571e-08
-2.95083e-06
-9.41821e-08
-2.90256e-06
-9.65018e-08
-2.85459e-06
-9.48846e-08
-2.80835e-06
-9.11793e-08
-2.76446e-06
-8.65222e-08
-2.72286e-06
-8.19927e-08
-2.68379e-06
-7.70543e-08
-2.64691e-06
-7.26944e-08
-2.61232e-06
-6.81372e-08
-2.57972e-06
-6.41385e-08
-2.54915e-06
-6.00729e-08
-2.52061e-06
-5.6058e-08
-2.49401e-06
-5.21863e-08
-2.4694e-06
-4.82606e-08
-2.44673e-06
-4.44864e-08
-2.42587e-06
-4.09871e-08
-2.40654e-06
-3.79875e-08
-2.38831e-06
-3.57266e-08
-2.37072e-06
-3.42584e-08
-2.35288e-06
-3.44404e-08
-2.33362e-06
-3.66316e-08
-2.31224e-06
-3.97151e-08
-2.28932e-06
-4.16198e-08
-2.26619e-06
-4.13544e-08
-2.24442e-06
-3.85098e-08
-2.225e-06
-3.44116e-08
-2.20694e-06
-3.26463e-08
-2.18834e-06
-3.38476e-08
-2.1688e-06
-3.49157e-08
-2.15059e-06
-3.20744e-08
-2.13637e-06
-2.45287e-08
-2.12831e-06
-1.38274e-08
-2.12524e-06
-6.45059e-09
-2.12297e-06
-6.06501e-09
-2.11835e-06
-1.03029e-08
-2.10929e-06
-1.75433e-08
-2.0954e-06
-2.48034e-08
-2.07878e-06
-2.85864e-08
-2.0608e-06
-3.07015e-08
-2.04107e-06
-3.36239e-08
-2.01956e-06
-3.63578e-08
-1.99766e-06
-3.63773e-08
-1.9774e-06
-3.33654e-08
-1.95923e-06
-2.99217e-08
-1.94246e-06
-2.75735e-08
-1.92728e-06
-2.47441e-08
-1.91422e-06
-2.08097e-08
-1.90367e-06
-1.63871e-08
-1.89474e-06
-1.40165e-08
-1.88562e-06
-1.42076e-08
-1.87803e-06
-1.07815e-08
-1.87524e-06
-2.14989e-09
-1.87835e-06
8.01703e-09
-1.88744e-06
1.80651e-08
-1.90237e-06
2.78893e-08
-1.92515e-06
4.189e-08
-1.96179e-06
6.75841e-08
-2.01836e-06
1.03144e-07
-2.09057e-06
1.27655e-07
-2.16282e-06
1.23696e-07
-2.22473e-06
1.06008e-07
-2.2784e-06
9.58957e-08
-2.33086e-06
9.66338e-08
-2.38232e-06
9.62257e-08
-2.43308e-06
9.63111e-08
-2.4833e-06
9.60921e-08
-2.53098e-06
9.29326e-08
-2.57641e-06
9.04435e-08
-2.61963e-06
8.78445e-08
-2.66077e-06
8.59795e-08
-2.70214e-06
8.79571e-08
-2.74432e-06
9.0346e-08
-2.78568e-06
9.01022e-08
-2.82474e-06
8.68875e-08
-2.85933e-06
7.98662e-08
-2.8903e-06
7.45485e-08
-2.91866e-06
7.01584e-08
-2.9477e-06
7.11527e-08
-2.9745e-06
6.61261e-08
-3.00088e-06
6.25408e-08
-3.03012e-06
6.42857e-08
7.91455e-08
-4.49898e-06
6.02583e-08
-4.53933e-06
1.01436e-07
-4.57723e-06
8.39692e-08
-4.61725e-06
8.09104e-08
-4.65664e-06
7.33155e-08
-4.68942e-06
5.39604e-08
-4.71862e-06
4.08253e-08
-4.73593e-06
1.03057e-08
-4.74123e-06
-1.79389e-08
-4.73679e-06
-4.08334e-08
-4.72477e-06
-5.86122e-08
-4.70717e-06
-7.13634e-08
-4.68582e-06
-8.09075e-08
-4.66036e-06
-9.19067e-08
-4.62853e-06
-1.07055e-07
-4.58943e-06
-1.22489e-07
-4.54387e-06
-1.35216e-07
-4.49386e-06
-1.442e-07
-4.44023e-06
-1.50125e-07
-4.38574e-06
-1.49379e-07
-4.33308e-06
-1.43839e-07
-4.28344e-06
-1.36163e-07
-4.23681e-06
-1.28624e-07
-4.19345e-06
-1.20413e-07
-4.15276e-06
-1.13381e-07
-4.1149e-06
-1.06003e-07
-4.07939e-06
-9.96449e-08
-4.04627e-06
-9.3192e-08
-4.01548e-06
-8.68437e-08
-3.98689e-06
-8.07829e-08
-3.96058e-06
-7.45737e-08
-3.93651e-06
-6.85501e-08
-3.91456e-06
-6.29398e-08
-3.89436e-06
-5.81852e-08
-3.87529e-06
-5.47939e-08
-3.85671e-06
-5.28377e-08
-3.83755e-06
-5.36061e-08
-3.81611e-06
-5.80694e-08
-3.79078e-06
-6.50464e-08
-3.76191e-06
-7.04858e-08
-3.7316e-06
-7.16654e-08
-3.70226e-06
-6.78531e-08
-3.67625e-06
-6.04223e-08
-3.65353e-06
-5.53688e-08
-3.63079e-06
-5.65805e-08
-3.60571e-06
-6.00012e-08
-3.58122e-06
-5.65671e-08
-3.56083e-06
-4.49176e-08
-3.54891e-06
-2.57398e-08
-3.5467e-06
-8.66099e-09
-3.5479e-06
-4.86355e-09
-3.54645e-06
-1.17616e-08
-3.53811e-06
-2.58753e-08
-3.52085e-06
-4.20682e-08
-3.49786e-06
-5.15752e-08
-3.47257e-06
-5.59943e-08
-3.4448e-06
-6.13882e-08
-3.41381e-06
-6.73494e-08
-3.38095e-06
-6.92368e-08
-3.34991e-06
-6.44072e-08
-3.32221e-06
-5.7621e-08
-3.29666e-06
-5.31287e-08
-3.27318e-06
-4.82187e-08
-3.25209e-06
-4.19018e-08
-3.2344e-06
-3.40778e-08
-3.22003e-06
-2.83903e-08
-3.20527e-06
-2.89674e-08
-3.1911e-06
-2.49437e-08
-3.18287e-06
-1.03792e-08
-3.183e-06
8.14358e-09
-3.19228e-06
2.73445e-08
-3.21043e-06
4.60439e-08
-3.23862e-06
7.00729e-08
-3.28275e-06
1.11714e-07
-3.35332e-06
1.73717e-07
-3.45227e-06
2.2661e-07
-3.5601e-06
2.31519e-07
-3.65324e-06
1.99151e-07
-3.72653e-06
1.69187e-07
-3.7928e-06
1.62905e-07
-3.85551e-06
1.58934e-07
-3.91558e-06
1.56376e-07
-3.97426e-06
1.54774e-07
-4.02791e-06
1.4658e-07
-4.07664e-06
1.39182e-07
-4.12086e-06
1.32058e-07
-4.15994e-06
1.25066e-07
-4.19735e-06
1.25363e-07
-4.2349e-06
1.27896e-07
-4.27018e-06
1.25377e-07
-4.30154e-06
1.18251e-07
-4.32652e-06
1.04843e-07
-4.34606e-06
9.40943e-08
-4.3617e-06
8.57992e-08
-4.379e-06
8.84493e-08
-4.39488e-06
8.20086e-08
-4.4136e-06
8.12541e-08
-4.43949e-06
9.01803e-08
1.20045e-07
-5.9683e-06
7.46362e-08
-6.01416e-06
1.47302e-07
-6.0627e-06
1.32504e-07
-6.11794e-06
1.36151e-07
-6.17484e-06
1.3022e-07
-6.22467e-06
1.03786e-07
-6.27179e-06
8.79434e-08
-6.30597e-06
4.4493e-08
-6.32613e-06
2.22068e-09
-6.33454e-06
-3.24235e-08
-6.3334e-06
-5.97579e-08
-6.32489e-06
-7.98735e-08
-6.31222e-06
-9.35797e-08
-6.29592e-06
-1.08203e-07
-6.27297e-06
-1.30004e-07
-6.24114e-06
-1.54319e-07
-6.20088e-06
-1.75481e-07
-6.15533e-06
-1.8975e-07
-6.10446e-06
-2.00987e-07
-6.05097e-06
-2.02877e-07
-5.999e-06
-1.95802e-07
-5.95039e-06
-1.84774e-07
-5.90529e-06
-1.73721e-07
-5.86401e-06
-1.61697e-07
-5.82567e-06
-1.51723e-07
-5.79046e-06
-1.41211e-07
-5.75776e-06
-1.32348e-07
-5.72753e-06
-1.23414e-07
-5.69966e-06
-1.14715e-07
-5.67388e-06
-1.06566e-07
-5.65026e-06
-9.81897e-08
-5.62879e-06
-9.00214e-08
-5.60931e-06
-8.24204e-08
-5.5914e-06
-7.60943e-08
-5.57436e-06
-7.18315e-08
-5.55755e-06
-6.96552e-08
-5.53985e-06
-7.1302e-08
-5.51924e-06
-7.86798e-08
-5.49324e-06
-9.10468e-08
-5.46211e-06
-1.01614e-07
-5.42848e-06
-1.05293e-07
-5.39523e-06
-1.0111e-07
-5.36616e-06
-8.94909e-08
-5.34247e-06
-7.90537e-08
-5.31946e-06
-7.95968e-08
-5.29255e-06
-8.6907e-08
-5.26516e-06
-8.39618e-08
-5.24069e-06
-6.93814e-08
-5.22566e-06
-4.07738e-08
-5.22503e-06
-9.29383e-09
-5.23097e-06
1.07948e-09
-5.23438e-06
-8.35411e-09
-5.22923e-06
-3.10227e-08
-5.21177e-06
-5.95244e-08
-5.18598e-06
-7.73663e-08
-5.15736e-06
-8.46152e-08
-5.12608e-06
-9.26659e-08
-5.0906e-06
-1.02835e-07
-5.05155e-06
-1.08287e-07
-5.0138e-06
-1.02154e-07
-4.98021e-06
-9.12099e-08
-4.94933e-06
-8.40109e-08
-4.92071e-06
-7.68362e-08
-4.89404e-06
-6.85785e-08
-4.87086e-06
-5.72572e-08
-4.85293e-06
-4.63205e-08
-4.83537e-06
-4.6525e-08
-4.81716e-06
-4.31541e-08
-4.80433e-06
-2.32078e-08
-4.80068e-06
4.49071e-09
-4.80832e-06
3.49858e-08
-4.82708e-06
6.4805e-08
-4.85611e-06
9.91062e-08
-4.89881e-06
1.54416e-07
-4.96958e-06
2.44483e-07
-5.08257e-06
3.39603e-07
-5.21942e-06
3.68364e-07
-5.33922e-06
3.18955e-07
-5.42308e-06
2.5305e-07
-5.4904e-06
2.30219e-07
-5.55123e-06
2.19765e-07
-5.60765e-06
2.12799e-07
-5.66201e-06
2.09129e-07
-5.70913e-06
1.93699e-07
-5.74942e-06
1.79472e-07
-5.78357e-06
1.66213e-07
-5.8106e-06
1.52093e-07
-5.83384e-06
1.48601e-07
-5.85541e-06
1.4947e-07
-5.87296e-06
1.42924e-07
-5.88537e-06
1.30662e-07
-5.89149e-06
1.10968e-07
-5.89277e-06
9.53757e-08
-5.88968e-06
8.27023e-08
-5.88906e-06
8.78283e-08
-5.88831e-06
8.12634e-08
-5.89437e-06
8.73149e-08
-5.91292e-06
1.08729e-07
1.61044e-07
-7.41811e-06
8.38895e-08
-7.4678e-06
1.96986e-07
-7.52829e-06
1.92996e-07
-7.6011e-06
2.08961e-07
-7.67921e-06
2.08326e-07
-7.74992e-06
1.74503e-07
-7.81553e-06
1.53552e-07
-7.86656e-06
9.5518e-08
-7.90492e-06
4.05862e-08
-7.93087e-06
-6.47201e-09
-7.94521e-06
-4.54164e-08
-7.95011e-06
-7.49742e-08
-7.94892e-06
-9.47737e-08
-7.94319e-06
-1.13935e-07
-7.9307e-06
-1.4249e-07
-7.90897e-06
-1.76051e-07
-7.87838e-06
-2.06069e-07
-7.84274e-06
-2.25395e-07
-7.80116e-06
-2.42568e-07
-7.75574e-06
-2.48294e-07
-7.71093e-06
-2.40608e-07
-7.66859e-06
-2.27115e-07
-7.62906e-06
-2.13251e-07
-7.59284e-06
-1.97916e-07
-7.55898e-06
-1.85589e-07
-7.52783e-06
-1.72363e-07
-7.4987e-06
-1.61477e-07
-7.47161e-06
-1.50506e-07
-7.44642e-06
-1.399e-07
-7.42277e-06
-1.30221e-07
-7.40066e-06
-1.20298e-07
-7.38001e-06
-1.10666e-07
-7.36066e-06
-1.01778e-07
-7.34218e-06
-9.45751e-08
-7.32406e-06
-8.99428e-08
-7.30583e-06
-8.78853e-08
-7.28651e-06
-9.06286e-08
-7.26427e-06
-1.00917e-07
-7.23709e-06
-1.18224e-07
-7.20574e-06
-1.32962e-07
-7.17292e-06
-1.38113e-07
-7.14115e-06
-1.32885e-07
-7.11394e-06
-1.16698e-07
-7.09192e-06
-1.01079e-07
-7.06998e-06
-1.01528e-07
-7.04425e-06
-1.12639e-07
-7.01843e-06
-1.09788e-07
-6.99557e-06
-9.22363e-08
-6.98198e-06
-5.43643e-08
-6.98256e-06
-8.71224e-09
-6.98932e-06
7.83802e-09
-6.99272e-06
-4.95324e-09
-6.98752e-06
-3.62196e-08
-6.97158e-06
-7.54684e-08
-6.94868e-06
-1.00268e-07
-6.92327e-06
-1.10026e-07
-6.89568e-06
-1.20252e-07
-6.86506e-06
-1.33454e-07
-6.83198e-06
-1.41371e-07
-6.79974e-06
-1.34389e-07
-6.77059e-06
-1.20361e-07
-6.74403e-06
-1.10575e-07
-6.71959e-06
-1.01272e-07
-6.69646e-06
-9.17162e-08
-6.67619e-06
-7.7525e-08
-6.66108e-06
-6.14302e-08
-6.64866e-06
-5.89401e-08
-6.63726e-06
-5.45572e-08
-6.62974e-06
-3.07296e-08
-6.62929e-06
4.04463e-09
-6.63855e-06
4.42478e-08
-6.65785e-06
8.41016e-08
-6.68562e-06
1.26873e-07
-6.72346e-06
1.92254e-07
-6.78441e-06
3.05435e-07
-6.88917e-06
4.44366e-07
-7.02515e-06
5.0434e-07
-7.14379e-06
4.37593e-07
-7.21781e-06
3.27079e-07
-7.2695e-06
2.81903e-07
-7.31406e-06
2.64329e-07
-7.35378e-06
2.52517e-07
-7.38928e-06
2.44631e-07
-7.41675e-06
2.21162e-07
-7.43776e-06
2.00482e-07
-7.45241e-06
1.80862e-07
-7.46192e-06
1.61604e-07
-7.4672e-06
1.53883e-07
-7.46736e-06
1.49629e-07
-7.46267e-06
1.38237e-07
-7.45192e-06
1.19908e-07
-7.43582e-06
9.4868e-08
-7.41782e-06
7.73812e-08
-7.39607e-06
6.09508e-08
-7.37788e-06
6.96359e-08
-7.36139e-06
6.47704e-08
-7.35469e-06
8.06215e-08
-7.36642e-06
1.20454e-07
2.03487e-07
-8.7953e-06
8.83784e-08
-8.84902e-06
2.50709e-07
-8.92055e-06
2.6453e-07
-9.00856e-06
2.96967e-07
-9.1044e-06
3.04162e-07
-9.19216e-06
2.62264e-07
-9.2729e-06
2.34297e-07
-9.33901e-06
1.61627e-07
-9.39483e-06
9.64049e-08
-9.43925e-06
3.79473e-08
-9.47245e-06
-1.22187e-08
-9.49553e-06
-5.18907e-08
-9.50765e-06
-8.2656e-08
-9.51012e-06
-1.11462e-07
-9.50428e-06
-1.48328e-07
-9.49032e-06
-1.90011e-07
-9.46948e-06
-2.26911e-07
-9.4441e-06
-2.50779e-07
-9.41366e-06
-2.73007e-07
-9.37984e-06
-2.82115e-07
-9.34547e-06
-2.74971e-07
-9.31153e-06
-2.61055e-07
-9.27824e-06
-2.46543e-07
-9.24651e-06
-2.2965e-07
-9.21557e-06
-2.16531e-07
-9.18605e-06
-2.01874e-07
-9.15744e-06
-1.90096e-07
-9.12995e-06
-1.77989e-07
-9.10362e-06
-1.66235e-07
-9.07807e-06
-1.55769e-07
-9.05329e-06
-1.45082e-07
-9.02915e-06
-1.34805e-07
-9.0055e-06
-1.25423e-07
-8.98209e-06
-1.17981e-07
-8.95871e-06
-1.13328e-07
-8.93506e-06
-1.11534e-07
-8.91051e-06
-1.15183e-07
-8.88422e-06
-1.27207e-07
-8.85571e-06
-1.46726e-07
-8.82612e-06
-1.62556e-07
-8.79742e-06
-1.66816e-07
-8.77099e-06
-1.59315e-07
-8.74815e-06
-1.39535e-07
-8.72795e-06
-1.21276e-07
-8.70744e-06
-1.22041e-07
-8.68556e-06
-1.34521e-07
-8.66504e-06
-1.30311e-07
-8.64899e-06
-1.08281e-07
-8.64089e-06
-6.24686e-08
-8.64126e-06
-8.34095e-09
-8.64394e-06
1.05158e-08
-8.64241e-06
-6.4747e-09
-8.63459e-06
-4.40442e-08
-8.62167e-06
-8.83904e-08
-8.60599e-06
-1.15942e-07
-8.58835e-06
-1.27667e-07
-8.56926e-06
-1.39347e-07
-8.55033e-06
-1.52384e-07
-8.53333e-06
-1.5837e-07
-8.5177e-06
-1.50021e-07
-8.50283e-06
-1.35231e-07
-8.48952e-06
-1.23881e-07
-8.47803e-06
-1.1276e-07
-8.46896e-06
-1.00791e-07
-8.46298e-06
-8.34997e-08
-8.45903e-06
-6.53878e-08
-8.45921e-06
-5.87556e-08
-8.46501e-06
-4.87597e-08
-8.47534e-06
-2.03982e-08
-8.49081e-06
1.95124e-08
-8.51173e-06
6.51713e-08
-8.53871e-06
1.11079e-07
-8.57343e-06
1.61592e-07
-8.61961e-06
2.38435e-07
-8.68226e-06
3.68087e-07
-8.76364e-06
5.25744e-07
-8.84926e-06
5.89965e-07
-8.91571e-06
5.04045e-07
-8.95827e-06
3.69639e-07
-8.98832e-06
3.11951e-07
-9.01223e-06
2.88236e-07
-9.03162e-06
2.71903e-07
-9.04355e-06
2.56564e-07
-9.04955e-06
2.27159e-07
-9.05052e-06
2.01452e-07
-9.04586e-06
1.76209e-07
-9.03763e-06
1.53367e-07
-9.0245e-06
1.40755e-07
-9.00422e-06
1.29348e-07
-8.97891e-06
1.12934e-07
-8.9471e-06
8.80938e-08
-8.9104e-06
5.81679e-08
-8.87344e-06
4.04265e-08
-8.83319e-06
2.06919e-08
-8.79781e-06
3.42642e-08
-8.76572e-06
3.26787e-08
-8.74612e-06
6.10181e-08
-8.74983e-06
1.24166e-07
2.44464e-07
-1.0094e-05
8.88244e-08
-1.01514e-05
3.08082e-07
-1.02307e-05
3.438e-07
-1.03274e-05
3.93681e-07
-1.04327e-05
4.09473e-07
-1.05298e-05
3.59325e-07
-1.06208e-05
3.2538e-07
-1.06988e-05
2.3958e-07
-1.07671e-05
1.64661e-07
-1.08242e-05
9.50681e-08
-1.08702e-05
3.37537e-08
-1.09051e-05
-1.69417e-08
-1.09266e-05
-6.11109e-08
-1.09356e-05
-1.02476e-07
-1.09351e-05
-1.48894e-07
-1.09283e-05
-1.96825e-07
-1.09164e-05
-2.38803e-07
-1.08992e-05
-2.67933e-07
-1.08784e-05
-2.93811e-07
-1.08555e-05
-3.05005e-07
-1.08305e-05
-2.99944e-07
-1.08041e-05
-2.87475e-07
-1.07761e-05
-2.74582e-07
-1.07478e-05
-2.57969e-07
-1.07186e-05
-2.45648e-07
-1.06896e-05
-2.3096e-07
-1.06602e-05
-2.19483e-07
-1.0631e-05
-2.07119e-07
-1.06024e-05
-1.9491e-07
-1.05739e-05
-1.84256e-07
-1.05456e-05
-1.73373e-07
-1.05174e-05
-1.63006e-07
-1.04892e-05
-1.53586e-07
-1.0461e-05
-1.46165e-07
-1.04328e-05
-1.4154e-07
-1.04045e-05
-1.39887e-07
-1.03757e-05
-1.43909e-07
-1.03469e-05
-1.56065e-07
-1.03192e-05
-1.74445e-07
-1.02935e-05
-1.88194e-07
-1.02707e-05
-1.89679e-07
-1.02508e-05
-1.79196e-07
-1.0233e-05
-1.57272e-07
-1.02153e-05
-1.39065e-07
-1.01976e-05
-1.3969e-07
-1.01829e-05
-1.49251e-07
-1.01709e-05
-1.42274e-07
-1.01631e-05
-1.16147e-07
-1.01603e-05
-6.51725e-08
-1.01596e-05
-9.04513e-09
-1.01577e-05
8.57749e-09
-1.01521e-05
-1.20387e-08
-1.01436e-05
-5.25418e-08
-1.01363e-05
-9.57514e-08
-1.01308e-05
-1.21408e-07
-1.01248e-05
-1.33684e-07
-1.01192e-05
-1.44914e-07
-1.01164e-05
-1.55204e-07
-1.01174e-05
-1.57362e-07
-1.01198e-05
-1.47599e-07
-1.01224e-05
-1.3268e-07
-1.01264e-05
-1.19907e-07
-1.01325e-05
-1.06581e-07
-1.0142e-05
-9.13778e-08
-1.01542e-05
-7.12132e-08
-1.01676e-05
-5.19912e-08
-1.01859e-05
-4.05404e-08
-1.02108e-05
-2.385e-08
-1.02399e-05
8.73227e-09
-1.02724e-05
5.20177e-08
-1.03077e-05
1.00493e-07
-1.03474e-05
1.50796e-07
-1.03949e-05
2.09097e-07
-1.04521e-05
2.95591e-07
-1.05121e-05
4.28041e-07
-1.05581e-05
5.71811e-07
-1.05798e-05
6.11669e-07
-1.05889e-05
5.13141e-07
-1.06021e-05
3.82839e-07
-1.06153e-05
3.25084e-07
-1.06219e-05
2.94892e-07
-1.06229e-05
2.72909e-07
-1.06156e-05
2.49212e-07
-1.06039e-05
2.15491e-07
-1.05877e-05
1.85276e-07
-1.05664e-05
1.54895e-07
-1.05407e-05
1.27682e-07
-1.05089e-05
1.08942e-07
-1.04697e-05
9.0147e-08
-1.04252e-05
6.83931e-08
-1.03741e-05
3.69763e-08
-1.03181e-05
2.18484e-09
-1.02617e-05
-1.59077e-08
-1.02022e-05
-3.88551e-08
-1.01486e-05
-1.93709e-08
-1.00993e-05
-1.66025e-08
-1.00652e-05
2.69135e-08
-1.0058e-05
1.16985e-07
2.8007e-07
-1.13218e-05
8.50217e-08
-1.13794e-05
3.657e-07
-1.14619e-05
4.26222e-07
-1.15616e-05
4.93384e-07
-1.16707e-05
5.18571e-07
-1.17726e-05
4.61309e-07
-1.18702e-05
4.22907e-07
-1.19554e-05
3.24805e-07
-1.20305e-05
2.39769e-07
-1.20937e-05
1.58283e-07
-1.21446e-05
8.46274e-08
-1.21832e-05
2.16816e-08
-1.22088e-05
-3.54902e-08
-1.22235e-05
-8.78014e-08
-1.22299e-05
-1.42505e-07
-1.22311e-05
-1.95652e-07
-1.22273e-05
-2.42559e-07
-1.22178e-05
-2.77427e-07
-1.22058e-05
-3.058e-07
-1.21921e-05
-3.18718e-07
-1.21747e-05
-3.17368e-07
-1.21544e-05
-3.07738e-07
-1.2131e-05
-2.98003e-07
-1.2106e-05
-2.82957e-07
-1.20791e-05
-2.72549e-07
-1.20512e-05
-2.58855e-07
-1.20222e-05
-2.48536e-07
-1.19927e-05
-2.36555e-07
-1.19632e-05
-2.24397e-07
-1.19335e-05
-2.13959e-07
-1.19037e-05
-2.03227e-07
-1.18736e-05
-1.93055e-07
-1.18435e-05
-1.8376e-07
-1.18133e-05
-1.76332e-07
-1.17833e-05
-1.71549e-07
-1.17535e-05
-1.69641e-07
-1.17242e-05
-1.7321e-07
-1.16964e-05
-1.83919e-07
-1.16722e-05
-1.98675e-07
-1.16521e-05
-2.08237e-07
-1.16359e-05
-2.05932e-07
-1.16226e-05
-1.9247e-07
-1.16099e-05
-1.6992e-07
-1.15961e-05
-1.52926e-07
-1.15838e-05
-1.51968e-07
-1.15771e-05
-1.55917e-07
-1.15743e-05
-1.45072e-07
-1.15748e-05
-1.15718e-07
-1.15769e-05
-6.30737e-08
-1.15757e-05
-1.01699e-08
-1.15716e-05
4.40537e-09
-1.15661e-05
-1.7466e-08
-1.15624e-05
-5.62844e-08
-1.15648e-05
-9.33154e-08
-1.1572e-05
-1.14281e-07
-1.15804e-05
-1.25234e-07
-1.15915e-05
-1.33851e-07
-1.16063e-05
-1.40379e-07
-1.16244e-05
-1.3927e-07
-1.16437e-05
-1.28282e-07
-1.1664e-05
-1.12417e-07
-1.16864e-05
-9.7522e-08
-1.17115e-05
-8.14178e-08
-1.17396e-05
-6.33333e-08
-1.17698e-05
-4.10073e-08
-1.18019e-05
-1.98334e-08
-1.18385e-05
-3.99296e-09
-1.18792e-05
1.68976e-08
-1.19218e-05
5.13187e-08
-1.19654e-05
9.56063e-08
-1.20101e-05
1.45178e-07
-1.20575e-05
1.98254e-07
-1.2109e-05
2.60527e-07
-1.21614e-05
3.48028e-07
-1.22004e-05
4.67036e-07
-1.22095e-05
5.80863e-07
-1.21913e-05
5.93472e-07
-1.21747e-05
4.96565e-07
-1.21738e-05
3.81931e-07
-1.2174e-05
3.25306e-07
-1.21663e-05
2.8718e-07
-1.21512e-05
2.57865e-07
-1.21284e-05
2.26375e-07
-1.21007e-05
1.87766e-07
-1.2068e-05
1.52553e-07
-1.20296e-05
1.16589e-07
-1.19857e-05
8.37844e-08
-1.1935e-05
5.81605e-08
-1.18767e-05
3.18628e-08
-1.18126e-05
4.30859e-09
-1.17417e-05
-3.39519e-08
-1.16655e-05
-7.40136e-08
-1.15885e-05
-9.28533e-08
-1.15085e-05
-1.18901e-07
-1.14351e-05
-9.27047e-08
-1.13673e-05
-8.44494e-08
-1.13169e-05
-2.34851e-08
-1.12969e-05
9.69415e-08
3.08827e-07
-1.24895e-05
7.62591e-08
-1.25437e-05
4.19836e-07
-1.26252e-05
5.07723e-07
-1.27232e-05
5.91424e-07
-1.28318e-05
6.272e-07
-1.29353e-05
5.64762e-07
-1.30355e-05
5.23146e-07
-1.31241e-05
4.13332e-07
-1.3202e-05
3.17688e-07
-1.32677e-05
2.23973e-07
-1.33208e-05
1.37728e-07
-1.33618e-05
6.2693e-08
-1.33915e-05
-5.73728e-09
-1.34128e-05
-6.65728e-08
-1.3427e-05
-1.28303e-07
-1.3436e-05
-1.86628e-07
-1.34399e-05
-2.38623e-07
-1.34387e-05
-2.78646e-07
-1.34351e-05
-3.09405e-07
-1.34289e-05
-3.24903e-07
-1.3418e-05
-3.28305e-07
-1.34033e-05
-3.22455e-07
-1.33846e-05
-3.16705e-07
-1.33635e-05
-3.03996e-07
-1.33399e-05
-2.96191e-07
-1.33146e-05
-2.84124e-07
-1.32877e-05
-2.75463e-07
-1.326e-05
-2.64277e-07
-1.32319e-05
-2.52506e-07
-1.32033e-05
-2.42543e-07
-1.31744e-05
-2.32143e-07
-1.31451e-05
-2.22258e-07
-1.31159e-05
-2.13048e-07
-1.30868e-05
-2.05417e-07
-1.30582e-05
-2.00133e-07
-1.30305e-05
-1.97356e-07
-1.30043e-05
-1.99426e-07
-1.29809e-05
-2.07241e-07
-1.29625e-05
-2.17132e-07
-1.29489e-05
-2.21772e-07
-1.29393e-05
-2.15556e-07
-1.2932e-05
-1.99768e-07
-1.29244e-05
-1.7752e-07
-1.29162e-05
-1.61168e-07
-1.29111e-05
-1.57069e-07
-1.29118e-05
-1.55238e-07
-1.29167e-05
-1.40167e-07
-1.29244e-05
-1.07946e-07
-1.29309e-05
-5.66413e-08
-1.29314e-05
-9.68188e-09
-1.29292e-05
2.25195e-09
-1.29291e-05
-1.76028e-08
-1.2936e-05
-4.93637e-08
-1.2952e-05
-7.72833e-08
-1.2973e-05
-9.32839e-08
-1.29968e-05
-1.01408e-07
-1.30244e-05
-1.06261e-07
-1.30559e-05
-1.08906e-07
-1.30903e-05
-1.04908e-07
-1.31262e-05
-9.23648e-08
-1.31638e-05
-7.47737e-08
-1.3204e-05
-5.73794e-08
-1.32469e-05
-3.85407e-08
-1.3292e-05
-1.81897e-08
-1.33387e-05
5.70491e-09
-1.3387e-05
2.84493e-08
-1.34377e-05
4.67202e-08
-1.34897e-05
6.88657e-08
-1.35409e-05
1.02506e-07
-1.35904e-05
1.45145e-07
-1.36381e-05
1.92913e-07
-1.36842e-05
2.44317e-07
-1.37269e-05
3.03248e-07
-1.3761e-05
3.82075e-07
-1.37745e-05
4.80596e-07
-1.37593e-05
5.6568e-07
-1.37284e-05
5.62541e-07
-1.37082e-05
4.76337e-07
-1.36994e-05
3.73187e-07
-1.36873e-05
3.13207e-07
-1.36661e-05
2.65946e-07
-1.36366e-05
2.2834e-07
-1.35992e-05
1.88967e-07
-1.35557e-05
1.44271e-07
-1.35062e-05
1.03118e-07
-1.34502e-05
6.05659e-08
-1.33874e-05
2.09928e-08
-1.33172e-05
-1.21036e-08
-1.3239e-05
-4.62594e-08
-1.31545e-05
-8.02721e-08
-1.30625e-05
-1.25899e-07
-1.29647e-05
-1.71866e-07
-1.28656e-05
-1.91935e-07
-1.27636e-05
-2.20908e-07
-1.26689e-05
-1.87371e-07
-1.25809e-05
-1.72419e-07
-1.25126e-05
-9.18652e-08
-1.24781e-05
6.24571e-08
3.29058e-07
-1.36086e-05
6.1434e-08
-1.3656e-05
4.67302e-07
-1.37336e-05
5.85319e-07
-1.38272e-05
6.85019e-07
-1.3933e-05
7.32927e-07
-1.40358e-05
6.67636e-07
-1.41364e-05
6.2372e-07
-1.42259e-05
5.02811e-07
-1.4305e-05
3.96798e-07
-1.43725e-05
2.9145e-07
-1.44287e-05
1.93904e-07
-1.4475e-05
1.08997e-07
-1.45118e-05
3.10812e-08
-1.45407e-05
-3.76012e-08
-1.45629e-05
-1.0612e-07
-1.45798e-05
-1.69754e-07
-1.45916e-05
-2.26824e-07
-1.45987e-05
-2.71506e-07
-1.46028e-05
-3.05324e-07
-1.46033e-05
-3.24474e-07
-1.45985e-05
-3.33081e-07
-1.45894e-05
-3.31502e-07
-1.45761e-05
-3.30079e-07
-1.45599e-05
-3.2015e-07
-1.45408e-05
-3.15326e-07
-1.45196e-05
-3.0526e-07
-1.44966e-05
-2.98527e-07
-1.44725e-05
-2.88389e-07
-1.44477e-05
-2.7722e-07
-1.44224e-05
-2.67862e-07
-1.43967e-05
-2.57865e-07
-1.43707e-05
-2.48222e-07
-1.43448e-05
-2.38936e-07
-1.43194e-05
-2.30822e-07
-1.4295e-05
-2.24619e-07
-1.4272e-05
-2.20307e-07
-1.42515e-05
-2.19927e-07
-1.42348e-05
-2.23919e-07
-1.42233e-05
-2.28688e-07
-1.42164e-05
-2.28637e-07
-1.4213e-05
-2.19002e-07
-1.42112e-05
-2.01576e-07
-1.42091e-05
-1.7956e-07
-1.42076e-05
-1.62634e-07
-1.42101e-05
-1.54596e-07
-1.42179e-05
-1.47488e-07
-1.42296e-05
-1.28447e-07
-1.42433e-05
-9.42575e-08
-1.4254e-05
-4.5939e-08
-1.4259e-05
-4.65204e-09
-1.42634e-05
6.62901e-09
-1.42743e-05
-6.71562e-09
-1.42961e-05
-2.75794e-08
-1.43266e-05
-4.67562e-08
-1.43618e-05
-5.80777e-08
-1.44008e-05
-6.24093e-08
-1.44439e-05
-6.31281e-08
-1.44908e-05
-6.20247e-08
-1.45405e-05
-5.51919e-08
-1.45922e-05
-4.06726e-08
-1.4646e-05
-2.1023e-08
-1.4702e-05
-1.2966e-09
-1.47603e-05
1.96921e-08
-1.48199e-05
4.13862e-08
-1.488e-05
6.58726e-08
-1.49403e-05
8.87583e-08
-1.50006e-05
1.06991e-07
-1.50594e-05
1.27635e-07
-1.51147e-05
1.57848e-07
-1.51654e-05
1.9585e-07
-1.52106e-05
2.38066e-07
-1.5249e-05
2.8271e-07
-1.52777e-05
3.32015e-07
-1.52923e-05
3.96638e-07
-1.52875e-05
4.75763e-07
-1.52636e-05
5.41833e-07
-1.5235e-05
5.33947e-07
-1.52154e-05
4.56682e-07
-1.51977e-05
3.5556e-07
-1.51734e-05
2.88827e-07
-1.5139e-05
2.31548e-07
-1.50954e-05
1.84816e-07
-1.50433e-05
1.36785e-07
-1.49835e-05
8.45622e-08
-1.49167e-05
3.62522e-08
-1.4842e-05
-1.41087e-08
-1.47595e-05
-6.15304e-08
-1.46688e-05
-1.02788e-07
-1.45696e-05
-1.45448e-07
-1.44631e-05
-1.86783e-07
-1.43485e-05
-2.40516e-07
-1.42273e-05
-2.93083e-07
-1.41044e-05
-3.14818e-07
-1.39789e-05
-3.46415e-07
-1.38613e-05
-3.04989e-07
-1.37517e-05
-2.8195e-07
-1.36639e-05
-1.79663e-07
-1.36136e-05
1.21034e-08
3.3889e-07
-1.46894e-05
3.96097e-08
-1.47277e-05
5.05639e-07
-1.47994e-05
6.57033e-07
-1.48875e-05
7.73046e-07
-1.49893e-05
8.348e-07
-1.50909e-05
7.69193e-07
-1.51912e-05
7.24022e-07
-1.52818e-05
5.93359e-07
-1.53635e-05
4.78514e-07
-1.54358e-05
3.63773e-07
-1.54986e-05
2.5666e-07
-1.55526e-05
1.6303e-07
-1.55976e-05
7.6085e-08
-1.56346e-05
-5.6893e-10
-1.5665e-05
-7.57883e-08
-1.56899e-05
-1.44802e-07
-1.57097e-05
-2.0699e-07
-1.57249e-05
-2.56296e-07
-1.57364e-05
-2.93915e-07
-1.57434e-05
-3.17448e-07
-1.57451e-05
-3.3137e-07
-1.57423e-05
-3.34272e-07
-1.57351e-05
-3.3728e-07
-1.57249e-05
-3.3038e-07
-1.57115e-05
-3.28719e-07
-1.56959e-05
-3.2087e-07
-1.56782e-05
-3.16196e-07
-1.56594e-05
-3.0726e-07
-1.56398e-05
-2.96815e-07
-1.56195e-05
-2.88105e-07
-1.55989e-05
-2.7848e-07
-1.55782e-05
-2.68949e-07
-1.55577e-05
-2.59374e-07
-1.55381e-05
-2.5049e-07
-1.55197e-05
-2.42974e-07
-1.55034e-05
-2.36605e-07
-1.54902e-05
-2.33182e-07
-1.5481e-05
-2.33054e-07
-1.54767e-05
-2.3305e-07
-1.54764e-05
-2.28909e-07
-1.54789e-05
-2.16492e-07
-1.54827e-05
-1.97764e-07
-1.54869e-05
-1.75393e-07
-1.54927e-05
-1.56836e-07
-1.55027e-05
-1.44547e-07
-1.55176e-05
-1.32612e-07
-1.55359e-05
-1.10104e-07
-1.55553e-05
-7.49505e-08
-1.55715e-05
-2.97305e-08
-1.5584e-05
7.9063e-09
-1.56e-05
2.26558e-08
-1.56268e-05
2.00036e-08
-1.56642e-05
9.87359e-09
-1.57086e-05
-2.36448e-09
-1.57578e-05
-8.88346e-09
-1.58112e-05
-9.00672e-09
-1.58687e-05
-5.62631e-09
-1.59298e-05
-9.51617e-10
-1.59937e-05
8.70378e-09
-1.60597e-05
2.53137e-08
-1.61275e-05
4.68235e-08
-1.61971e-05
6.82441e-08
-1.62678e-05
9.03909e-08
-1.63386e-05