/*--------------------------------*- C++ -*----------------------------------*\
| =========                 |                                                 |
| \\      /  F ield         | OpenFOAM: The Open Source CFD Toolbox           |
|  \\    /   O peration     | Version:  5.0                                   |
|   \\  /    A nd           | Web:      www.OpenFOAM.org                      |
|    \\/     M anipulation  |                                                 |
\*---------------------------------------------------------------------------*/
FoamFile
{
    version     2.0;
    format      ascii;
    class       volVectorField;
    location    "20000";
    object      U;
}
// * * * * * * * * * * * * * * * * * * * * * * * * * * * * * * * * * * * * * //

dimensions      [0 1 -1 0 0 0 0];

internalField   nonuniform List<vector> 
14751
(
(0.00142286 -9.23279e-08 0)
(0.00143882 -1.50776e-07 0)
(0.00145684 -6.91745e-09 3.53741e-27)
(0.00146386 4.10628e-08 -1.41499e-26)
(0.00146993 1.15439e-07 2.25103e-25)
(0.00147005 1.73913e-07 -1.47368e-25)
(0.00146636 2.28051e-07 0)
(0.00145783 2.90257e-07 -2.04693e-25)
(0.0014431 3.32745e-07 8.17685e-27)
(0.00142464 3.73288e-07 -5.83771e-27)
(0.00140268 4.02606e-07 3.17672e-25)
(0.0013785 4.20276e-07 0)
(0.0013527 4.32803e-07 0)
(0.00132537 4.43891e-07 -2.21192e-25)
(0.00129577 4.51356e-07 -2.32485e-25)
(0.0012642 4.49238e-07 0)
(0.00123135 4.38752e-07 0)
(0.00119779 4.28622e-07 0)
(0.00116388 4.09916e-07 -1.50632e-25)
(0.00113062 3.81963e-07 0)
(0.00109901 3.5549e-07 1.04409e-26)
(0.00106895 3.27225e-07 7.46243e-26)
(0.00104058 3.00536e-07 0)
(0.00101383 2.72623e-07 0)
(0.000988751 2.47285e-07 0)
(0.000965222 2.22096e-07 1.19674e-26)
(0.000943245 2.00387e-07 -1.20873e-25)
(0.000922648 1.79707e-07 1.21962e-26)
(0.000903493 1.61025e-07 0)
(0.000885687 1.44009e-07 1.27004e-26)
(0.00086922 1.28368e-07 8.30473e-26)
(0.00085405 1.14603e-07 -9.66521e-26)
(0.000840083 1.02511e-07 -6.50439e-27)
(0.000827199 9.225e-08 -9.78707e-26)
(0.000815227 8.36759e-08 4.58434e-26)
(0.000803979 7.69967e-08 3.27442e-27)
(0.000793176 7.36183e-08 -1.39209e-30)
(0.000782232 7.4387e-08 -1.68381e-24)
(0.00077085 7.34862e-08 3.28704e-27)
(0.000759165 7.05768e-08 0)
(0.000747742 6.58957e-08 0)
(0.000737052 5.67989e-08 0)
(0.00072762 4.998e-08 0)
(0.000718891 5.30972e-08 0)
(0.000709846 6.0032e-08 4.08254e-25)
(0.000700385 5.74111e-08 -7.9229e-28)
(0.000691288 5.08705e-08 -3.99655e-25)
(0.000684049 3.52189e-08 0)
(0.000679346 1.72883e-08 3.9039e-25)
(0.000677033 2.0276e-08 -3.85595e-25)
(0.000674747 3.10093e-08 -7.37876e-28)
(0.00067145 4.02991e-08 7.37885e-28)
(0.000666829 5.08079e-08 0)
(0.000660702 5.41104e-08 0)
(0.000653822 5.29513e-08 2.74953e-27)
(0.000646907 5.71722e-08 -2.74952e-27)
(0.000639428 6.45346e-08 -3.43277e-25)
(0.00063125 7.00044e-08 -3.29969e-25)
(0.000622979 6.79571e-08 -4.99627e-27)
(0.000615421 6.4287e-08 4.99592e-27)
(0.000608908 6.62002e-08 0)
(0.000602898 6.74693e-08 -2.3756e-24)
(0.000597436 6.96341e-08 0)
(0.000592928 7.01579e-08 0)
(0.000589654 6.82328e-08 0)
(0.000587221 7.77771e-08 -5.13286e-25)
(0.000584831 8.67579e-08 -7.51105e-27)
(0.000582567 8.46332e-08 7.50915e-27)
(0.000582525 7.89868e-08 0)
(0.000584964 7.45629e-08 -1.99047e-25)
(0.000589843 7.36111e-08 1.75302e-25)
(0.000596866 7.49952e-08 7.31634e-28)
(0.000606286 6.79811e-08 -1.65334e-25)
(0.000620968 2.75076e-08 -1.64721e-25)
(0.000645005 -3.49504e-08 1.52977e-25)
(0.000677822 -4.57242e-08 0)
(0.000710782 1.88214e-08 0)
(0.000737879 7.14526e-08 0)
(0.000762466 6.30982e-08 0)
(0.000788954 4.27719e-08 -1.1436e-26)
(0.000817868 4.19664e-08 -1.59748e-25)
(0.000846629 3.18776e-08 0)
(0.000877023 3.13937e-08 -3.57274e-27)
(0.000907272 2.49115e-08 6.45669e-27)
(0.00093789 1.21852e-08 -2.88454e-27)
(0.000968906 2.2644e-09 0)
(0.00100045 -1.89469e-08 0)
(0.00103302 -4.9149e-08 0)
(0.00106783 -7.25522e-08 -1.3395e-27)
(0.00110364 -1.02585e-07 -3.16716e-29)
(0.00114 -1.24859e-07 2.68751e-29)
(0.00117578 -1.41213e-07 1.6326e-26)
(0.0012104 -1.76606e-07 1.35086e-27)
(0.00124441 -1.90373e-07 2.29151e-26)
(0.00127823 -2.26513e-07 -2.52101e-26)
(0.00131185 -2.34598e-07 -4.56009e-26)
(0.00134223 -2.30761e-07 0)
(0.00136869 -1.88442e-07 0)
(0.00139932 -2.85399e-07 0)
(0.00423493 -1.23873e-06 0)
(0.0042726 -1.33574e-06 1.74538e-24)
(0.00431331 -6.26167e-07 1.6715e-25)
(0.00432799 -2.16703e-07 -1.33968e-23)
(0.00433899 1.86542e-07 -2.96543e-25)
(0.00433567 6.08128e-07 1.97567e-25)
(0.00432276 9.70538e-07 6.29711e-23)
(0.00429797 1.44224e-06 7.91937e-23)
(0.00425659 1.81705e-06 -9.26655e-23)
(0.00420487 2.1164e-06 9.87025e-26)
(0.00414414 2.33779e-06 1.23485e-22)
(0.00407761 2.47894e-06 0)
(0.00400708 2.58823e-06 1.5769e-22)
(0.00393324 2.7175e-06 -7.77069e-24)
(0.00385375 2.86101e-06 -7.38178e-26)
(0.00376902 2.95907e-06 6.04681e-24)
(0.00368025 3.0005e-06 0)
(0.00358935 3.01899e-06 -7.30527e-24)
(0.00349747 2.97785e-06 -2.33182e-22)
(0.00340675 2.8516e-06 -1.61216e-23)
(0.00332049 2.70268e-06 -6.16444e-25)
(0.00323865 2.54367e-06 1.7168e-22)
(0.00316169 2.38985e-06 -1.75307e-23)
(0.00308938 2.2308e-06 -9.30471e-24)
(0.00302175 2.08285e-06 9.33916e-24)
(0.00295845 1.93499e-06 -9.78691e-24)
(0.00289944 1.80167e-06 1.68559e-22)
(0.00284426 1.67111e-06 1.51521e-22)
(0.002793 1.54548e-06 1.85011e-22)
(0.00274542 1.42546e-06 -1.03682e-23)
(0.00270149 1.3086e-06 8.43304e-23)
(0.00266111 1.1994e-06 -5.18812e-24)
(0.00262403 1.09975e-06 5.36579e-24)
(0.00258995 1.01296e-06 -8.65764e-23)
(0.00255836 9.42002e-07 -5.54264e-24)
(0.00252868 8.91209e-07 9.8499e-23)
(0.00250015 8.74378e-07 -9.05167e-23)
(0.00247121 8.97863e-07 -2.90334e-28)
(0.00244082 9.24875e-07 -2.74112e-24)
(0.00240894 9.27885e-07 5.47945e-24)
(0.00237726 8.91555e-07 -4.91859e-23)
(0.00234721 8.0638e-07 2.72871e-24)
(0.00232046 7.21338e-07 4.33294e-23)
(0.0022962 7.07498e-07 -2.01963e-23)
(0.00227195 7.44559e-07 1.80441e-23)
(0.0022464 7.39647e-07 2.18754e-23)
(0.00222127 6.59085e-07 1.11625e-23)
(0.00220102 4.81697e-07 6.52853e-25)
(0.00218722 2.6837e-07 -6.41557e-25)
(0.00218115 1.84802e-07 6.33795e-25)
(0.00217687 2.27186e-07 -2.50199e-24)
(0.00217036 3.17527e-07 9.86317e-24)
(0.0021601 4.39999e-07 0)
(0.0021448 5.30336e-07 0)
(0.00212608 5.59985e-07 0)
(0.00210681 5.921e-07 1.13247e-24)
(0.00208603 6.49112e-07 -5.72526e-25)
(0.00206323 6.8967e-07 -1.61244e-24)
(0.00203965 6.64545e-07 2.15914e-24)
(0.00201762 5.94666e-07 -3.31772e-23)
(0.00199885 5.4227e-07 0)
(0.00198183 5.02855e-07 3.90368e-24)
(0.00196653 4.53727e-07 -3.71012e-24)
(0.00195396 3.79679e-07 5.84143e-23)
(0.0019447 2.96348e-07 3.57299e-24)
(0.00193833 2.80384e-07 8.41702e-25)
(0.0019328 2.89801e-07 5.47166e-23)
(0.00192706 2.03445e-07 -5.23337e-23)
(0.00192724 3.01708e-08 5.24546e-23)
(0.00193464 -1.55197e-07 -5.33911e-24)
(0.00194954 -3.24729e-07 8.32649e-23)
(0.00197135 -4.87565e-07 0)
(0.00200065 -7.60949e-07 2.86864e-25)
(0.00204432 -1.33156e-06 2.66618e-25)
(0.00211275 -2.08729e-06 -4.05718e-24)
(0.00220734 -2.45091e-06 -5.47029e-23)
(0.0023085 -2.16191e-06 -3.24145e-24)
(0.00239721 -1.78513e-06 -4.62174e-23)
(0.00247579 -1.77019e-06 -4.44786e-23)
(0.00255526 -1.92955e-06 0)
(0.0026407 -1.98287e-06 6.94318e-23)
(0.00272468 -2.04716e-06 0)
(0.00281311 -2.07857e-06 -1.43184e-24)
(0.00290077 -2.08522e-06 1.42442e-24)
(0.00298822 -2.116e-06 -3.24176e-23)
(0.0030758 -2.13919e-06 -3.14353e-25)
(0.00316362 -2.20583e-06 -1.57987e-23)
(0.0032523 -2.34898e-06 8.83763e-24)
(0.00334647 -2.47496e-06 -7.64628e-26)
(0.00344245 -2.56625e-06 -6.10948e-27)
(0.00353859 -2.58734e-06 -8.61828e-24)
(0.0036324 -2.5287e-06 -1.26286e-23)
(0.00372061 -2.52145e-06 1.56528e-23)
(0.00380563 -2.48724e-06 -3.40897e-26)
(0.00388903 -2.54047e-06 -9.29663e-24)
(0.00397069 -2.42135e-06 9.13484e-24)
(0.00404329 -2.20861e-06 -7.71098e-24)
(0.00410857 -2.02719e-06 0)
(0.00417947 -2.24637e-06 -5.74493e-26)
(0.00705974 -3.18308e-06 -1.36448e-27)
(0.00710856 -3.1636e-06 -1.67818e-24)
(0.00716077 -1.5608e-06 1.61589e-23)
(0.00717838 -5.21061e-07 1.31002e-23)
(0.00718971 4.08453e-07 7.53378e-23)
(0.00718162 1.41242e-06 0)
(0.0071601 2.28017e-06 -6.39528e-23)
(0.00712275 3.48149e-06 -7.7148e-23)
(0.00706007 4.53151e-06 9.21732e-23)
(0.00698107 5.35186e-06 -2.18196e-22)
(0.00688878 5.95983e-06 -3.75077e-22)
(0.00678778 6.36407e-06 0)
(0.00668112 6.66906e-06 -4.72129e-22)
(0.00657093 7.03523e-06 0)
(0.00645312 7.48041e-06 -3.66533e-22)
(0.00632748 7.84895e-06 -2.55867e-23)
(0.00619461 8.07856e-06 1.33233e-23)
(0.00605815 8.21308e-06 -4.83834e-22)
(0.00592012 8.19379e-06 2.63425e-22)
(0.00578261 7.93291e-06 0)
(0.00565176 7.56035e-06 5.83093e-22)
(0.00552802 7.14471e-06 -2.1443e-22)
(0.0054123 6.73278e-06 3.65605e-23)
(0.00530406 6.31036e-06 -6.14785e-22)
(0.00520327 5.91421e-06 6.53847e-22)
(0.00510927 5.51981e-06 4.12158e-25)
(0.00502197 5.15893e-06 -1.87423e-22)
(0.0049406 4.80559e-06 -1.70338e-22)
(0.00486522 4.4627e-06 -1.95345e-22)
(0.00479543 4.13129e-06 -3.30766e-22)
(0.00473116 3.80442e-06 -1.11841e-22)
(0.00467229 3.49356e-06 2.25197e-23)
(0.00461851 3.20634e-06 1.14475e-23)
(0.00456931 2.95418e-06 4.48881e-22)
(0.00452393 2.75057e-06 0)
(0.00448132 2.60911e-06 8.14324e-23)
(0.00444036 2.56364e-06 1.16694e-22)
(0.00439879 2.63868e-06 -1.16899e-23)
(0.00435458 2.75518e-06 0)
(0.00430674 2.81382e-06 0)
(0.00425815 2.74178e-06 4.66064e-23)
(0.00421118 2.51681e-06 -9.29134e-23)
(0.00416888 2.25208e-06 -4.91457e-23)
(0.00413156 2.14142e-06 -6.32814e-23)
(0.00409607 2.20169e-06 -1.17152e-22)
(0.00405824 2.21734e-06 2.26703e-23)
(0.00401971 2.00353e-06 -1.12321e-23)
(0.00398807 1.50326e-06 -6.90635e-25)
(0.00396506 8.51567e-07 6.91442e-25)
(0.00395626 4.63227e-07 -2.71656e-24)
(0.00395366 4.75247e-07 2.0151e-24)
(0.00394881 7.12041e-07 -9.89621e-24)
(0.0039381 1.09995e-06 0)
(0.00391789 1.4592e-06 3.82713e-23)
(0.0038897 1.62547e-06 2.52557e-24)
(0.00385976 1.7274e-06 0)
(0.00382763 1.88353e-06 4.73763e-24)
(0.00379218 2.01141e-06 -9.3611e-24)
(0.0037544 1.96683e-06 4.62404e-24)
(0.00371803 1.74936e-06 3.11646e-23)
(0.00368739 1.53693e-06 8.63088e-24)
(0.0036601 1.37761e-06 -1.38155e-22)
(0.00363575 1.18877e-06 -1.21563e-22)
(0.00361567 9.32569e-07 -7.04342e-23)
(0.00360041 6.43985e-07 -1.12907e-22)
(0.00359061 5.0101e-07 2.16502e-22)
(0.00358358 4.85939e-07 -4.81783e-23)
(0.00357484 2.34949e-07 5.26652e-23)
(0.00357459 -3.26609e-07 -6.22407e-23)
(0.00358601 -9.64498e-07 1.21591e-23)
(0.00361027 -1.58234e-06 -1.00107e-22)
(0.00364699 -2.18866e-06 1.78299e-22)
(0.00369652 -3.08711e-06 -9.43799e-24)
(0.00376726 -4.75737e-06 2.99162e-22)
(0.00387349 -7.00235e-06 -8.06432e-24)
(0.00402393 -8.39091e-06 6.96865e-23)
(0.00419662 -8.00804e-06 -1.36214e-23)
(0.00435688 -7.01222e-06 -1.41696e-22)
(0.00449489 -6.7084e-06 4.63425e-23)
(0.00462563 -7.00129e-06 9.63114e-24)
(0.00476452 -7.12404e-06 7.033e-23)
(0.00489874 -7.25816e-06 -8.26541e-24)
(0.00503979 -7.35856e-06 1.03179e-22)
(0.00517886 -7.31638e-06 8.42554e-23)
(0.00531535 -7.30096e-06 3.30299e-23)
(0.00545026 -7.27829e-06 6.38643e-25)
(0.0055835 -7.30858e-06 1.56717e-23)
(0.00571439 -7.56245e-06 -8.83054e-24)
(0.0058528 -7.82894e-06 4.33265e-24)
(0.00599246 -7.92717e-06 1.21398e-26)
(0.00613041 -7.83765e-06 -8.43282e-24)
(0.00626389 -7.48066e-06 1.23935e-23)
(0.00638536 -7.1605e-06 -1.55604e-23)
(0.00649965 -6.88709e-06 -3.40607e-23)
(0.00661012 -6.79376e-06 4.42811e-23)
(0.00671709 -6.31312e-06 -8.81863e-24)
(0.00681083 -5.66936e-06 7.79364e-24)
(0.00689772 -5.16759e-06 -5.15511e-26)
(0.00698787 -5.32316e-06 5.67188e-26)
(0.00985914 -5.68172e-06 1.31859e-27)
(0.00990819 -5.08175e-06 0)
(0.00996122 -2.23733e-06 -1.56796e-23)
(0.00997561 -1.41369e-07 1.02544e-22)
(0.00998113 1.61652e-06 -7.42096e-23)
(0.00996407 3.43013e-06 1.96221e-22)
(0.00993098 4.99663e-06 0)
(0.00988164 7.20181e-06 0)
(0.00979997 9.31372e-06 0)
(0.00969678 1.09214e-05 2.1434e-22)
(0.00957712 1.20993e-05 2.46069e-22)
(0.00944639 1.28954e-05 0)
(0.00930882 1.34301e-05 3.10826e-22)
(0.00916976 1.40566e-05 0)
(0.00902314 1.48962e-05 3.74799e-22)
(0.00886764 1.56815e-05 0)
(0.00870174 1.62326e-05 -8.71493e-22)
(0.00853119 1.65332e-05 -4.65098e-22)
(0.0083592 1.65718e-05 3.15199e-23)
(0.00818567 1.61451e-05 -3.1817e-23)
(0.00802054 1.54034e-05 -5.46329e-22)
(0.00786506 1.45464e-05 -3.62453e-23)
(0.0077208 1.36789e-05 3.65307e-23)
(0.00758689 1.28074e-05 5.759e-22)
(0.00746306 1.19859e-05 6.33273e-22)
(0.00734831 1.11787e-05 4.0304e-23)
(0.00724243 1.04324e-05 -6.257e-22)
(0.00714437 9.7101e-06 -4.22799e-23)
(0.00705399 9.01194e-06 6.94679e-22)
(0.00697072 8.33555e-06 3.52882e-22)
(0.00689439 7.66667e-06 6.9289e-22)
(0.00682488 7.02417e-06 7.23279e-22)
(0.00676183 6.42614e-06 2.27402e-23)
(0.00670463 5.89922e-06 -3.67692e-22)
(0.00665226 5.47872e-06 0)
(0.00660325 5.18861e-06 -1.85486e-22)
(0.00655637 5.084e-06 3.7171e-22)
(0.006509 5.23273e-06 -3.71829e-22)
(0.00645802 5.5411e-06 -3.71326e-22)
(0.0064005 5.76859e-06 0)
(0.00634049 5.70884e-06 -1.1526e-23)
(0.00628097 5.31887e-06 1.03754e-22)
(0.00622649 4.74799e-06 5.72527e-24)
(0.00618016 4.35431e-06 8.00788e-23)
(0.00613945 4.36524e-06 9.65729e-23)
(0.00609555 4.47523e-06 -4.78317e-23)
(0.00604816 4.12176e-06 -8.3707e-23)
(0.00600841 3.20256e-06 -4.83603e-23)
(0.00597629 1.85603e-06 -2.05218e-23)
(0.00596561 7.53887e-07 5.41548e-24)
(0.00596884 5.16675e-07 2.13511e-23)
(0.00597142 9.17256e-07 -4.1983e-23)
(0.00596704 1.76228e-06 0)
(0.00594847 2.71406e-06 -4.28661e-23)
(0.00591528 3.24158e-06 2.49854e-24)
(0.00587862 3.46903e-06 1.5044e-22)
(0.00583968 3.76759e-06 4.80177e-24)
(0.00579649 4.07266e-06 9.16292e-24)
(0.00574862 4.08565e-06 -9.17727e-24)
(0.00570044 3.64439e-06 0)
(0.00566061 3.11136e-06 0)
(0.00562603 2.71816e-06 1.33589e-22)
(0.00559551 2.28411e-06 -1.21448e-22)
(0.0055704 1.74271e-06 -2.73297e-22)
(0.00555055 1.10803e-06 3.76775e-22)
(0.00553912 6.46503e-07 -2.45738e-22)
(0.00553431 5.72974e-07 1.41472e-23)
(0.0055249 1.47382e-07 4.23071e-22)
(0.00552469 -1.02037e-06 4.02757e-22)
(0.0055395 -2.4352e-06 0)
(0.00557223 -3.8776e-06 3.59692e-22)
(0.00562351 -5.30684e-06 -1.89022e-22)
(0.00569256 -7.20829e-06 2.02918e-23)
(0.00578564 -1.0432e-05 3.01925e-26)
(0.005917 -1.49566e-05 -5.36153e-22)
(0.0061096 -1.84919e-05 -1.48738e-23)
(0.00635213 -1.87356e-05 1.12169e-24)
(0.00659177 -1.68785e-05 2.17904e-22)
(0.00679239 -1.55769e-05 0)
(0.00696767 -1.57187e-05 0)
(0.00715229 -1.58483e-05 -4.18011e-22)
(0.00732663 -1.60134e-05 0)
(0.00751049 -1.62444e-05 -9.98199e-23)
(0.00769111 -1.60488e-05 -8.12238e-23)
(0.00786555 -1.58433e-05 0)
(0.00803589 -1.56516e-05 0)
(0.00820205 -1.54434e-05 0)
(0.00835967 -1.57093e-05 0)
(0.00852553 -1.61298e-05 -4.15436e-24)
(0.00869113 -1.61204e-05 2.88471e-27)
(0.00885192 -1.57676e-05 4.90866e-23)
(0.00900638 -1.48707e-05 1.57015e-25)
(0.00914363 -1.39169e-05 0)
(0.00926897 -1.31687e-05 9.919e-23)
(0.00938747 -1.27074e-05 -3.48522e-23)
(0.00950078 -1.16416e-05 7.64446e-25)
(0.00959872 -1.03612e-05 -2.40306e-25)
(0.00969203 -9.26432e-06 0)
(0.00978434 -8.98115e-06 0)
(0.0125359 -8.36176e-06 6.24892e-27)
(0.0125764 -6.58365e-06 -1.22785e-23)
(0.0126242 -2.25661e-06 5.7711e-23)
(0.0126335 1.2851e-06 -3.24154e-25)
(0.0126322 4.18286e-06 9.11713e-25)
(0.0126057 7.022e-06 1.88161e-22)
(0.0125596 9.46793e-06 -3.31185e-24)
(0.0124979 1.28998e-05 2.48103e-24)
(0.0123999 1.64105e-05 -2.50675e-24)
(0.0122771 1.90425e-05 1.70091e-24)
(0.012135 2.0984e-05 9.35692e-22)
(0.0119792 2.23007e-05 0)
(0.011815 2.30217e-05 0)
(0.0116522 2.38161e-05 2.13624e-23)
(0.0114837 2.50469e-05 -2.15218e-23)
(0.0113074 2.6367e-05 -1.54699e-21)
(0.0111184 2.73576e-05 8.5678e-22)
(0.0109248 2.78205e-05 8.5909e-22)
(0.0107313 2.79692e-05 1.87705e-21)
(0.0105332 2.73916e-05 0)
(0.0103444 2.6137e-05 -6.62738e-23)
(0.0101669 2.46411e-05 -2.26542e-24)
(0.0100033 2.30966e-05 6.97072e-23)
(0.00985234 2.15746e-05 0)
(0.00971362 2.01367e-05 -1.20751e-21)
(0.00958581 1.87401e-05 -3.90835e-23)
(0.00946868 1.74406e-05 1.9386e-21)
(0.00936084 1.62004e-05 0)
(0.00926195 1.5011e-05 -6.55094e-22)
(0.00917119 1.38615e-05 -4.16842e-23)
(0.00908822 1.27273e-05 -6.2884e-22)
(0.00901288 1.16324e-05 6.75973e-22)
(0.00894476 1.06107e-05 0)
(0.00888311 9.71221e-06 0)
(0.00882681 8.99708e-06 -6.8332e-22)
(0.00877429 8.49461e-06 -2.1361e-23)
(0.00872437 8.2868e-06 -3.19642e-22)
(0.00867448 8.52881e-06 3.18398e-22)
(0.00862072 9.15041e-06 3.58668e-22)
(0.00855854 9.6682e-06 0)
(0.00849318 9.67681e-06 0)
(0.00842742 9.10413e-06 1.04037e-23)
(0.00836677 8.04862e-06 3.2303e-22)
(0.0083172 7.10011e-06 -1.71439e-22)
(0.00827709 6.97907e-06 5.16962e-24)
(0.00823308 7.30616e-06 0)
(0.00818316 6.8639e-06 8.32522e-23)
(0.00814071 5.53957e-06 -4.24811e-23)
(0.00810226 3.26023e-06 5.96415e-23)
(0.00809048 8.96422e-07 -2.46541e-24)
(0.00810023 6.86677e-08 1.93958e-23)
(0.00811149 6.12377e-07 1.13913e-22)
(0.00811563 2.1149e-06 7.86603e-23)
(0.00810325 4.02079e-06 -1.48993e-22)
(0.00807145 5.14366e-06 1.41588e-22)
(0.00803537 5.5088e-06 -2.8653e-22)
(0.00799779 5.95544e-06 -2.55321e-22)
(0.00795627 6.53244e-06 -8.42621e-24)
(0.00790865 6.7208e-06 8.03576e-24)
(0.00785851 5.99916e-06 2.39602e-22)
(0.00781808 4.96858e-06 2.32912e-23)
(0.00778447 4.20317e-06 -1.54412e-23)
(0.00775593 3.41914e-06 -2.36404e-22)
(0.00773326 2.5344e-06 2.29025e-22)
(0.00771496 1.42373e-06 2.21576e-22)
(0.00770705 3.7586e-07 0)
(0.00771086 1.3071e-07 -4.09214e-22)
(0.00770943 -4.53582e-07 -3.92154e-22)
(0.00771578 -2.34889e-06 3.75215e-22)
(0.00773749 -4.80612e-06 -2.17198e-23)
(0.00777962 -7.45922e-06 -2.95543e-22)
(0.00784488 -1.01025e-05 -6.54698e-22)
(0.00793113 -1.32402e-05 -1.78434e-23)
(0.00803948 -1.81137e-05 2.91048e-22)
(0.00817962 -2.54495e-05 5.05534e-22)
(0.00838947 -3.26721e-05 0)
(0.0086835 -3.50822e-05 -4.00071e-22)
(0.0089936 -3.22855e-05 -2.47265e-23)
(0.00924668 -2.86803e-05 -1.96607e-23)
(0.00944785 -2.79357e-05 1.93416e-23)
(0.00965801 -2.7953e-05 2.51733e-22)
(0.00985324 -2.81098e-05 0)
(0.0100609 -2.85291e-05 0)
(0.010264 -2.80373e-05 0)
(0.0104589 -2.75063e-05 -3.09617e-24)
(0.0106487 -2.70137e-05 -1.65426e-22)
(0.010833 -2.63922e-05 1.11812e-22)
(0.0110058 -2.65184e-05 6.68717e-25)
(0.0111836 -2.69569e-05 1.50306e-23)
(0.0113585 -2.66406e-05 5.15564e-27)
(0.0115251 -2.58552e-05 2.93655e-23)
(0.0116847 -2.42725e-05 8.58083e-23)
(0.0118281 -2.24846e-05 0)
(0.0119579 -2.1052e-05 -1.79386e-22)
(0.0120774 -1.99273e-05 0)
(0.0121885 -1.80483e-05 0)
(0.0122839 -1.59212e-05 0)
(0.0123756 -1.392e-05 -2.02398e-23)
(0.0124643 -1.2807e-05 0)
(0.0149345 -1.08699e-05 -1.37109e-27)
(0.0149595 -7.3769e-06 1.10595e-23)
(0.0150012 -1.63226e-06 -5.23868e-23)
(0.0150088 3.5247e-06 -8.70053e-23)
(0.0150074 7.73309e-06 -2.46272e-22)
(0.0149799 1.18376e-05 -3.34855e-22)
(0.0149273 1.56432e-05 -3.7211e-24)
(0.0148489 2.05563e-05 5.2893e-22)
(0.0147387 2.5523e-05 6.34007e-22)
(0.0146051 2.93612e-05 0)
(0.0144496 3.22995e-05 -8.618e-22)
(0.0142773 3.4277e-05 9.77361e-22)
(0.0140942 3.5221e-05 -1.09051e-21)
(0.0139103 3.61648e-05 0)
(0.0137222 3.77666e-05 0)
(0.013528 3.96751e-05 7.98015e-26)
(0.0133221 4.11071e-05 -4.83874e-23)
(0.0131136 4.16548e-05 4.87734e-23)
(0.0129079 4.19307e-05 -3.15886e-26)
(0.0126969 4.12085e-05 0)
(0.0124957 3.93466e-05 1.93917e-21)
(0.0123053 3.70969e-05 -6.03554e-23)
(0.012129 3.47298e-05 -2.04179e-21)
(0.0119657 3.24185e-05 -6.66983e-23)
(0.0118151 3.02215e-05 1.35212e-22)
(0.011676 2.80963e-05 -6.84068e-23)
(0.0115482 2.61082e-05 -1.12591e-21)
(0.0114302 2.42293e-05 0)
(0.0113217 2.24382e-05 0)
(0.0112218 2.07147e-05 0)
(0.0111298 1.90249e-05 -1.16821e-21)
(0.0110455 1.73946e-05 -3.67644e-23)
(0.0109683 1.58769e-05 3.64961e-23)
(0.0108975 1.45427e-05 1.20597e-21)
(0.0108319 1.34672e-05 5.45866e-22)
(0.0107706 1.26855e-05 0)
(0.0107124 1.2315e-05 -5.74453e-22)
(0.010655 1.26099e-05 0)
(0.0105951 1.3516e-05 -1.75353e-23)
(0.0105294 1.42607e-05 1.74458e-23)
(0.0104633 1.42535e-05 8.6418e-24)
(0.0103988 1.33997e-05 2.67951e-22)
(0.0103405 1.17144e-05 -2.85429e-22)
(0.0102936 1.00946e-05 1.46811e-22)
(0.010255 9.83599e-06 0)
(0.0102128 1.0402e-05 1.34308e-22)
(0.0101665 9.85027e-06 -2.07011e-24)
(0.0101279 8.07059e-06 2.07023e-24)
(0.0100936 4.69359e-06 -6.59488e-23)
(0.0100842 8.20352e-07 -3.59591e-24)
(0.0100952 -7.21365e-07 -5.06626e-25)
(0.0101071 2.74251e-09 -6.45804e-23)
(0.0101115 2.23863e-06 5.88018e-23)
(0.0101024 5.108e-06 1.24893e-22)
(0.0100789 6.78136e-06 -1.11707e-22)
(0.0100528 7.23729e-06 1.06063e-22)
(0.010026 7.78077e-06 2.22051e-22)
(0.00999746 8.55666e-06 -2.1742e-22)
(0.00996606 8.82917e-06 0)
(0.00993418 7.77972e-06 -6.44278e-22)
(0.00990966 6.21545e-06 4.26488e-22)
(0.0098917 4.98512e-06 -1.24307e-23)
(0.00987975 3.78071e-06 1.25119e-23)
(0.00987351 2.50809e-06 -1.17663e-23)
(0.00987142 8.08632e-07 -1.0848e-21)
(0.00987938 -9.92475e-07 -2.30957e-23)
(0.00990001 -1.65826e-06 3.26086e-22)
(0.0099235 -2.60049e-06 2.13858e-23)
(0.00995445 -5.28233e-06 1.00855e-25)
(0.00999812 -8.86861e-06 -6.17363e-22)
(0.0100595 -1.28834e-05 0)
(0.0101425 -1.68775e-05 3.3444e-23)
(0.0102454 -2.12357e-05 -6.46979e-23)
(0.010367 -2.76372e-05 -4.493e-22)
(0.0105132 -3.79662e-05 -8.98473e-22)
(0.0107187 -4.98749e-05 8.42566e-22)
(0.0110182 -5.55701e-05 -3.81758e-22)
(0.0113457 -5.16415e-05 0)
(0.0116103 -4.468e-05 -5.6565e-22)
(0.0118125 -4.24682e-05 1.45714e-23)
(0.0120216 -4.23759e-05 4.24287e-22)
(0.0122201 -4.25141e-05 -1.75117e-24)
(0.0124289 -4.29914e-05 -1.03465e-23)
(0.0126308 -4.20827e-05 0)
(0.0128276 -4.11902e-05 0)
(0.0130205 -4.03282e-05 -1.23377e-25)
(0.0132085 -3.93621e-05 -9.44634e-23)
(0.013394 -3.92943e-05 -5.20093e-23)
(0.0135755 -3.94599e-05 -1.25972e-23)
(0.0137511 -3.87032e-05 1.25954e-26)
(0.0139186 -3.7343e-05 -5.05919e-23)
(0.0140756 -3.50092e-05 -1.48169e-22)
(0.0142225 -3.23895e-05 0)
(0.0143576 -3.01215e-05 1.04208e-22)
(0.0144796 -2.81052e-05 8.36364e-25)
(0.0145907 -2.5283e-05 1.04593e-22)
(0.014687 -2.208e-05 0)
(0.014775 -1.89504e-05 5.38524e-23)
(0.0148652 -1.67108e-05 4.49858e-26)
(0.0169688 -1.30817e-05 -3.62655e-27)
(0.0169823 -7.64375e-06 0)
(0.0170176 -5.22295e-07 0)
(0.0170219 6.39126e-06 1.49347e-22)
(0.0170169 1.21495e-05 2.20407e-22)
(0.0169836 1.78617e-05 -5.9012e-22)
(0.0169197 2.33062e-05 7.54509e-22)
(0.016824 2.96787e-05 4.65276e-22)
(0.0167026 3.60743e-05 -5.57173e-22)
(0.0165608 4.11353e-05 2.72016e-24)
(0.0163987 4.50953e-05 -2.75423e-24)
(0.0162211 4.78813e-05 -2.53926e-21)
(0.0160308 4.94985e-05 9.258e-22)
(0.0158267 5.09195e-05 1.57369e-23)
(0.0156166 5.29313e-05 0)
(0.0154002 5.52541e-05 1.21992e-21)
(0.0151798 5.68999e-05 0)
(0.0149596 5.74041e-05 0)
(0.0147441 5.77089e-05 1.4531e-21)
(0.0145274 5.67652e-05 0)
(0.014321 5.42867e-05 -2.06536e-26)
(0.0141239 5.1313e-05 5.3381e-23)
(0.0139384 4.81299e-05 1.68927e-21)
(0.0137642 4.50114e-05 0)
(0.0136015 4.20119e-05 0)
(0.0134494 3.91024e-05 -5.89543e-23)
(0.0133081 3.63586e-05 5.86022e-23)
(0.0131764 3.37714e-05 0)
(0.0130541 3.13085e-05 0)
(0.0129404 2.8947e-05 3.02322e-23)
(0.0128348 2.66492e-05 9.32721e-22)
(0.0127366 2.4441e-05 -9.6055e-22)
(0.0126454 2.23897e-05 0)
(0.0125604 2.05776e-05 -9.79474e-22)
(0.0124808 1.90834e-05 2.93645e-23)
(0.0124061 1.79533e-05 0)
(0.0123352 1.73306e-05 4.60588e-22)
(0.0122668 1.75195e-05 9.0835e-22)
(0.0121994 1.84572e-05 -4.46875e-22)
(0.0121323 1.91537e-05 0)
(0.012069 1.89134e-05 -1.37174e-23)
(0.0120109 1.76585e-05 -2.05849e-22)
(0.0119597 1.53673e-05 6.85154e-24)
(0.0119166 1.31754e-05 -6.88316e-24)
(0.0118782 1.27369e-05 0)
(0.0118394 1.3348e-05 1.06104e-22)
(0.0118015 1.25599e-05 1.08708e-22)
(0.011771 1.02307e-05 4.72504e-23)
(0.0117494 5.85613e-06 2.86592e-23)
(0.011744 7.5855e-07 6.12081e-24)
(0.0117502 -1.33363e-06 -2.59329e-23)
(0.0117553 -4.23754e-07 -9.58042e-23)
(0.0117541 2.32959e-06 -9.83147e-23)
(0.0117464 5.75221e-06 5.70144e-24)
(0.0117354 7.68523e-06 -5.70146e-24)
(0.0117244 8.16238e-06 0)
(0.0117129 8.6851e-06 0)
(0.0117027 9.34007e-06 1.71329e-22)
(0.0116969 9.33619e-06 1.03942e-23)
(0.0116971 7.90373e-06 3.22893e-22)
(0.0117007 5.9128e-06 -3.28394e-22)
(0.0117093 4.22172e-06 0)
(0.0117238 2.54371e-06 2.95979e-22)
(0.0117446 7.136e-07 1.95753e-23)
(0.0117737 -1.66294e-06 -8.99697e-26)
(0.0118109 -4.14084e-06 -1.7931e-23)
(0.011855 -5.50723e-06 -5.46707e-22)
(0.0119136 -7.24744e-06 0)
(0.0119836 -1.08654e-05 -5.2687e-22)
(0.0120663 -1.55909e-05 1.49107e-21)
(0.012163 -2.08471e-05 6.06095e-23)
(0.0122745 -2.61012e-05 4.29745e-22)
(0.0124029 -3.18094e-05 8.63093e-22)
(0.0125526 -3.99804e-05 0)
(0.0127302 -5.32287e-05 1.5198e-21)
(0.0129444 -6.88315e-05 -7.20537e-22)
(0.0131964 -7.61547e-05 6.50529e-22)
(0.0134478 -7.03793e-05 0)
(0.0136625 -6.10044e-05 4.65737e-22)
(0.0138612 -5.79751e-05 0)
(0.0140562 -5.78314e-05 -3.42687e-22)
(0.0142573 -5.8069e-05 5.96962e-22)
(0.014456 -5.84217e-05 -5.0672e-22)
(0.0146524 -5.73313e-05 0)
(0.0148488 -5.62172e-05 -3.2505e-22)
(0.0150431 -5.51171e-05 1.21646e-22)
(0.0152351 -5.38985e-05 9.69194e-25)
(0.0154288 -5.34863e-05 4.29227e-23)
(0.0156134 -5.32054e-05 -2.22964e-23)
(0.0157912 -5.19091e-05 0)
(0.0159613 -4.99189e-05 0)
(0.0161189 -4.68948e-05 6.38954e-23)
(0.0162692 -4.34539e-05 6.6368e-25)
(0.0164076 -4.02227e-05 -6.68696e-25)
(0.0165309 -3.70831e-05 -9.50759e-23)
(0.0166421 -3.31226e-05 -9.18467e-23)
(0.0167372 -2.86614e-05 -3.412e-25)
(0.0168212 -2.41891e-05 -6.3064e-23)
(0.0169075 -2.04186e-05 -3.95192e-26)
(0.0186614 -1.49538e-05 0)
(0.0186678 -7.37133e-06 0)
(0.018693 1.07841e-06 0)
(0.0186872 9.82929e-06 -1.32667e-22)
(0.0186681 1.72836e-05 -3.8368e-22)
(0.0186176 2.47951e-05 5.15673e-22)
(0.0185345 3.21608e-05 -3.91504e-25)
(0.0184228 4.00674e-05 -1.61156e-21)
(0.0182875 4.77487e-05 0)
(0.0181321 5.40214e-05 -2.3516e-24)
(0.0179581 5.90991e-05 -2.98217e-24)
(0.0177688 6.28841e-05 1.47645e-21)
(0.0175653 6.54101e-05 -1.62259e-21)
(0.0173444 6.75333e-05 1.1784e-24)
(0.0171145 6.9946e-05 -4.57077e-23)
(0.0168803 7.24302e-05 3.10528e-23)
(0.016649 7.41096e-05 2.1573e-21)
(0.0164194 7.4546e-05 2.36562e-21)
(0.0161934 7.46359e-05 -4.82865e-21)
(0.0159742 7.33104e-05 -3.92115e-23)
(0.0157636 7.0284e-05 -1.25758e-21)
(0.0155614 6.66872e-05 -8.59241e-23)
(0.0153684 6.27978e-05 0)
(0.0151849 5.89429e-05 4.69507e-23)
(0.0150115 5.51802e-05 -4.6725e-23)
(0.0148478 5.15098e-05 4.84634e-23)
(0.0146941 4.80119e-05 -4.8019e-23)
(0.0145497 4.46969e-05 1.51081e-21)
(0.0144146 4.15314e-05 4.85152e-23)
(0.0142882 3.84977e-05 1.61164e-21)
(0.0141701 3.55633e-05 -4.84482e-23)
(0.0140595 3.27542e-05 0)
(0.0139561 3.01447e-05 0)
(0.0138591 2.78181e-05 0)
(0.0137682 2.58496e-05 0)
(0.0136829 2.43007e-05 7.22987e-22)
(0.0136024 2.33246e-05 2.3013e-23)
(0.0135261 2.32102e-05 -1.46346e-21)
(0.0134547 2.38205e-05 3.68378e-22)
(0.0133898 2.41131e-05 7.08249e-22)
(0.0133319 2.33937e-05 3.52223e-22)
(0.0132816 2.16053e-05 0)
(0.0132381 1.87873e-05 3.52187e-22)
(0.0131994 1.62528e-05 0)
(0.0131618 1.55907e-05 0)
(0.0131292 1.58404e-05 2.63294e-24)
(0.0131043 1.46335e-05 -8.42571e-23)
(0.013084 1.17388e-05 -3.91965e-24)
(0.0130743 6.58226e-06 -4.06428e-23)
(0.0130715 8.08388e-07 -2.94038e-24)
(0.0130722 -1.52847e-06 3.20443e-25)
(0.0130711 -4.60274e-07 8.11553e-23)
(0.0130671 2.51349e-06 -4.74009e-24)
(0.0130634 5.85681e-06 -1.4484e-22)
(0.0130672 7.56395e-06 -4.47384e-24)
(0.0130733 7.89714e-06 8.90041e-24)
(0.0130812 8.16505e-06 -4.43223e-24)
(0.013094 8.3858e-06 -8.52577e-24)
(0.0131152 7.88698e-06 8.62911e-24)
(0.0131442 6.05904e-06 0)
(0.0131759 3.67064e-06 -8.16303e-24)
(0.0132127 1.45066e-06 -5.29083e-22)
(0.0132561 -8.32566e-07 -5.10704e-22)
(0.0133073 -3.3282e-06 1.59148e-23)
(0.0133688 -6.3677e-06 4.89538e-22)
(0.0134373 -9.57323e-06 0)
(0.013513 -1.1969e-05 -4.62967e-22)
(0.0136062 -1.47974e-05 0)
(0.0137122 -1.93677e-05 -8.92289e-22)
(0.0138306 -2.50795e-05 -8.05409e-22)
(0.0139607 -3.14135e-05 7.95417e-22)
(0.0141028 -3.79536e-05 -2.28372e-23)
(0.014262 -4.52209e-05 4.47423e-23)
(0.0144445 -5.51e-05 -2.15202e-23)
(0.0146496 -6.97905e-05 6.25972e-22)
(0.0148595 -8.62526e-05 1.17581e-21)
(0.0150469 -9.35074e-05 0)
(0.0152119 -8.70021e-05 9.26774e-22)
(0.0153831 -7.72059e-05 -2.55196e-23)
(0.015581 -7.41599e-05 6.84783e-22)
(0.0157722 -7.40994e-05 -5.95595e-22)
(0.0159741 -7.43996e-05 -1.02472e-21)
(0.0161681 -7.46211e-05 4.35794e-22)
(0.0163651 -7.35133e-05 -6.07141e-24)
(0.0165639 -7.23243e-05 2.80042e-22)
(0.0167622 -7.10787e-05 -2.09461e-22)
(0.01696 -6.9768e-05 -8.37885e-25)
(0.0171564 -6.89771e-05 8.38517e-25)
(0.0173437 -6.80888e-05 1.92829e-23)
(0.0175243 -6.62222e-05 -3.13207e-23)
(0.0176964 -6.3515e-05 0)
(0.0178567 -5.9746e-05 4.89768e-25)
(0.018008 -5.54601e-05 -4.93111e-25)
(0.0181457 -5.11515e-05 -1.58416e-22)
(0.0182668 -4.67148e-05 8.35035e-23)
(0.0183738 -4.14641e-05 8.10336e-23)
(0.0184625 -3.54991e-05 -1.24021e-25)
(0.0185395 -2.94722e-05 5.56877e-23)
(0.0186131 -2.3945e-05 0)
(0.0200619 -1.63571e-05 5.6971e-29)
(0.020058 -6.55588e-06 -5.72595e-29)
(0.0200675 3.40496e-06 3.65218e-25)
(0.0200451 1.41745e-05 -3.68219e-25)
(0.0200057 2.35418e-05 3.3573e-22)
(0.0199339 3.29866e-05 4.48522e-22)
(0.0198304 4.22618e-05 -4.57983e-25)
(0.0197009 5.16695e-05 -2.49405e-24)
(0.019548 6.06855e-05 3.2077e-24)
(0.0193745 6.81863e-05 -2.1975e-25)
(0.0191816 7.4354e-05 -1.10312e-21)
(0.0189724 7.91313e-05 -1.01902e-23)
(0.0187485 8.26776e-05 1.36815e-21)
(0.0185119 8.5576e-05 -1.4848e-21)
(0.0182694 8.83305e-05 0)
(0.0180258 9.08576e-05 -2.79026e-23)
(0.0177871 9.24484e-05 -1.81247e-21)
(0.0175506 9.2748e-05 -1.9513e-21)
(0.0173178 9.24132e-05 1.97424e-21)
(0.017097 9.06037e-05 1.33962e-22)
(0.0168824 8.70935e-05 -6.86373e-23)
(0.0166759 8.29626e-05 0)
(0.016477 7.8469e-05 -2.47282e-21)
(0.0162867 7.39472e-05 7.56297e-23)
(0.0161059 6.94698e-05 -2.49735e-21)
(0.0159344 6.50722e-05 3.99024e-23)
(0.0157724 6.08332e-05 -7.96433e-23)
(0.0156196 5.67828e-05 1.31993e-21)
(0.0154762 5.28941e-05 1.28164e-21)
(0.0153417 4.91603e-05 -1.23949e-21)
(0.0152157 4.55594e-05 -3.96396e-23)
(0.0150977 4.21188e-05 -3.97522e-23)
(0.014987 3.89129e-05 1.29764e-21)
(0.0148834 3.60195e-05 -1.95261e-23)
(0.0147866 3.35116e-05 1.92602e-23)
(0.0146962 3.14635e-05 -5.91767e-22)
(0.0146119 3.00151e-05 -6.22616e-22)
(0.0145336 2.9385e-05 1.19241e-21)